# vtk DataFile Version 2.0
MCNP Weight Window Input File; Minimum Non-Zero Value: 0.00017649
ASCII
DATASET RECTILINEAR_GRID
DIMENSIONS 5 5 5
X_COORDINATES 5 float
  -1.00000e+02  -5.00000e+01   0.00000e+00   5.00000e+01   1.00000e+02
Y_COORDINATES 5 float
  -1.00000e+02  -5.00000e+01   0.00000e+00   5.00000e+01   1.00000e+02
Z_COORDINATES 5 float
  -1.00000e+02  -5.00000e+01   0.00000e+00   5.00000e+01   1.00000e+02
CELL_DATA 64
SCALARS Weight_Window_Mesh_Index int
LOOKUP_TABLE Weight_Window_Mesh_Index_table
        1        2        3        4        5        6        7        8        9       10
       11       12       13       14       15       16       17       18       19       20
       21       22       23       24       25       26       27       28       29       30
       31       32       33       34       35       36       37       38       39       40
       41       42       43       44       45       46       47       48       49       50
       51       52       53       54       55       56       57       58       59       60
       61       62       63       64
SCALARS Weight_Windows_Upper_Erg_1.000e+02 float
LOOKUP_TABLE Weight_Windows_Upper_Erg_1.000e+02_table
   0.00000e+00   0.00000e+00   0.00000e+00   0.00000e+00   0.00000e+00
   0.00000e+00   0.00000e+00   0.00000e+00   0.00000e+00   0.00000e+00
   0.00000e+00   0.00000e+00   0.00000e+00   0.00000e+00   0.00000e+00
   0.00000e+00   0.00000e+00   0.00000e+00   0.00000e+00   0.00000e+00
   0.00000e+00   8.43450e-01   2.17820e-02   0.00000e+00   2.61240e-01
   2.28500e-01   1.29700e-02   1.76490e-04   0.00000e+00   0.00000e+00
   0.00000e+00   0.00000e+00   0.00000e+00   0.00000e+00   0.00000e+00
   0.00000e+00   1.95250e-01   1.42780e-01   9.09490e-03   2.50740e-04
   5.00000e-01   1.98840e-01   1.92780e-02   1.99750e-04   0.00000e+00
   0.00000e+00   0.00000e+00   0.00000e+00   0.00000e+00   0.00000e+00
   0.00000e+00   0.00000e+00   0.00000e+00   0.00000e+00   0.00000e+00
   0.00000e+00   0.00000e+00   0.00000e+00   0.00000e+00   0.00000e+00
   0.00000e+00   0.00000e+00   0.00000e+00   0.00000e+00
