<VTKFile byte_order="LittleEndian" type="PolyData" version="0.1">
  <PolyData>
    <Piece NumberOfLines="628" NumberOfPoints="638" NumberOfPolys="0" NumberOfStrips="0" NumberOfVerts="0">
      <CellData Scalars="Scalars">
        <DataArray Name="energy" format="ascii" type="Float32">
          1.000e-02
          1.000e-02
          1.000e-02
          9.473e-04
          9.473e-04
          9.473e-04
          2.374e-04
          2.347e-04
          2.774e-05
          2.774e-05
          2.774e-05
          2.774e-05
          2.774e-05
          2.774e-05
          2.774e-05
          2.774e-05
          2.750e-05
          2.750e-05
          2.750e-05
          2.750e-05
          2.750e-05
          2.750e-05
          1.550e-06
          1.550e-06
          1.550e-06
          1.550e-06
          1.623e-06
          1.623e-06
          1.623e-06
          1.623e-06
          1.623e-06
          1.019e-06
          7.917e-07
          7.917e-07
          7.917e-07
          7.917e-07
          7.838e-07
          7.838e-07
          7.838e-07
          1.000e-02
          1.000e-02
          1.000e-02
          1.000e-02
          3.905e-03
          3.905e-03
          3.905e-03
          3.905e-03
          3.905e-03
          3.905e-03
          3.905e-03
          3.905e-03
          3.905e-03
          3.905e-03
          1.614e-03
          3.994e-04
          3.994e-04
          2.761e-04
          2.761e-04
          2.761e-04
          2.761e-04
          4.596e-05
          4.596e-05
          1.916e-05
          1.916e-05
          1.916e-05
          1.916e-05
          1.916e-05
          1.916e-05
          1.916e-05
          1.000e-02
          1.000e-02
          1.000e-02
          8.823e-04
          8.823e-04
          8.823e-04
          8.823e-04
          8.823e-04
          8.823e-04
          8.823e-04
          8.823e-04
          8.823e-04
          8.823e-04
          5.024e-05
          5.024e-05
          5.024e-05
          5.024e-05
          5.024e-05
          5.024e-05
          8.439e-06
          5.576e-06
          4.743e-06
          4.743e-06
          2.553e-06
          2.553e-06
          6.012e-07
          6.012e-07
          1.993e-07
          1.993e-07
          1.782e-07
          1.257e-07
          1.257e-07
          2.114e-07
          2.114e-07
          1.920e-07
          1.920e-07
          1.859e-07
          1.859e-07
          1.089e-07
          1.263e-07
          1.263e-07
          7.052e-08
          7.052e-08
          6.799e-08
          9.014e-08
          9.014e-08
          9.014e-08
          9.014e-08
          9.014e-08
          1.668e-07
          1.668e-07
          1.668e-07
          1.668e-07
          1.198e-07
          4.364e-09
          5.955e-09
          2.857e-08
          2.944e-08
          2.944e-08
          2.944e-08
          6.857e-08
          3.055e-08
          5.676e-08
          5.676e-08
          5.726e-08
          5.726e-08
          5.726e-08
          5.628e-08
          5.628e-08
          5.628e-08
          5.628e-08
          5.628e-08
          5.991e-08
          5.991e-08
          6.815e-08
          1.074e-07
          1.074e-07
          1.074e-07
          1.074e-07
          1.074e-07
          1.074e-07
          1.000e-02
          1.000e-02
          1.000e-02
          8.900e-03
          8.733e-03
          8.733e-03
          8.733e-03
          8.733e-03
          7.668e-03
          7.668e-03
          7.668e-03
          2.425e-03
          1.524e-03
          1.123e-04
          8.026e-05
          2.325e-05
          2.325e-05
          2.325e-05
          2.325e-05
          2.325e-05
          2.244e-05
          2.216e-05
          2.216e-05
          2.216e-05
          2.216e-05
          2.216e-05
          2.216e-05
          1.649e-05
          1.649e-05
          1.396e-05
          2.355e-06
          2.355e-06
          2.355e-06
          2.355e-06
          1.438e-06
          1.438e-06
          2.681e-07
          2.681e-07
          2.681e-07
          2.681e-07
          2.681e-07
          2.681e-07
          2.681e-07
          2.681e-07
          2.681e-07
          2.681e-07
          2.392e-07
          3.839e-08
          2.143e-07
          4.697e-08
          2.764e-08
          5.902e-08
          5.902e-08
          5.308e-08
          7.456e-08
          9.742e-08
          9.281e-08
          4.276e-08
          4.276e-08
          1.287e-08
          5.603e-08
          5.603e-08
          3.024e-08
          3.024e-08
          2.780e-08
          3.116e-08
          9.546e-08
          9.546e-08
          9.218e-08
          7.838e-08
          7.838e-08
          3.231e-08
          3.231e-08
          2.719e-08
          2.280e-08
          2.280e-08
          6.947e-08
          6.230e-08
          1.107e-07
          1.107e-07
          1.107e-07
          1.107e-07
          1.288e-07
          1.288e-07
          1.288e-07
          1.288e-07
          1.288e-07
          1.208e-07
          1.318e-07
          1.318e-07
          1.318e-07
          1.270e-07
          1.555e-07
          1.555e-07
          1.719e-07
          1.719e-07
          1.719e-07
          1.564e-07
          1.607e-07
          1.607e-07
          1.607e-07
          1.607e-07
          1.607e-07
          1.607e-07
          1.607e-07
          1.607e-07
          1.608e-07
          8.941e-08
          8.941e-08
          8.941e-08
          8.941e-08
          8.941e-08
          1.000e-02
          1.000e-02
          1.000e-02
          3.967e-03
          3.967e-03
          3.967e-03
          2.948e-03
          2.948e-03
          2.948e-03
          2.948e-03
          2.411e-03
          2.411e-03
          2.411e-03
          2.411e-03
          3.753e-04
          3.083e-04
          3.083e-04
          3.083e-04
          3.083e-04
          3.083e-04
          2.421e-04
          2.421e-04
          2.421e-04
          2.421e-04
          2.421e-04
          9.464e-05
          9.464e-05
          7.065e-05
          5.222e-05
          3.203e-05
          1.667e-05
          1.667e-05
          1.667e-05
          1.128e-05
          4.763e-06
          2.376e-06
          6.289e-08
          2.948e-07
          3.654e-08
          3.654e-08
          1.323e-07
          7.787e-08
          7.787e-08
          3.459e-08
          4.081e-08
          4.081e-08
          4.081e-08
          6.113e-08
          6.113e-08
          6.113e-08
          6.113e-08
          6.113e-08
          1.000e-02
          1.000e-02
          1.000e-02
          9.033e-03
          1.889e-03
          1.889e-03
          1.889e-03
          1.889e-03
          1.889e-03
          1.889e-03
          1.889e-03
          1.889e-03
          1.889e-03
          1.889e-03
          1.889e-03
          1.889e-03
          1.889e-03
          1.889e-03
          1.871e-03
          1.871e-03
          1.871e-03
          1.871e-03
          1.871e-03
          1.871e-03
          1.871e-03
          1.871e-03
          1.854e-03
          1.854e-03
          1.612e-03
          1.612e-03
          1.612e-03
          1.612e-03
          1.612e-03
          1.612e-03
          1.612e-03
          1.612e-03
          1.612e-03
          1.607e-03
          1.584e-03
          1.471e-03
          1.225e-03
          1.225e-03
          1.225e-03
          1.225e-03
          1.225e-03
          1.225e-03
          1.225e-03
          1.225e-03
          1.157e-03
          1.157e-03
          1.157e-03
          1.157e-03
          1.157e-03
          1.157e-03
          1.157e-03
          1.143e-03
          1.143e-03
          1.143e-03
          1.143e-03
          1.143e-03
          8.100e-04
          8.100e-04
          8.100e-04
          2.647e-04
          2.971e-05
          2.971e-05
          1.912e-05
          1.095e-05
          1.095e-05
          1.009e-05
          3.383e-06
          3.383e-06
          3.383e-06
          3.383e-06
          3.383e-06
          1.534e-06
          1.534e-06
          1.532e-06
          1.532e-06
          1.532e-06
          1.532e-06
          1.532e-06
          6.988e-07
          6.988e-07
          7.919e-07
          7.919e-07
          7.919e-07
          7.919e-07
          7.919e-07
          7.835e-07
          8.321e-07
          7.995e-07
          7.995e-07
          7.816e-07
          7.816e-07
          7.816e-07
          7.667e-07
          7.667e-07
          7.667e-07
          1.000e-02
          1.000e-02
          1.000e-02
          1.633e-03
          1.633e-03
          1.633e-03
          1.357e-03
          1.357e-03
          3.686e-04
          3.686e-04
          3.686e-04
          3.686e-04
          3.686e-04
          3.649e-04
          3.649e-04
          3.649e-04
          3.649e-04
          3.649e-04
          3.649e-04
          3.649e-04
          3.649e-04
          3.649e-04
          3.254e-04
          3.254e-04
          3.254e-04
          3.254e-04
          3.254e-04
          3.254e-04
          3.254e-04
          3.254e-04
          1.046e-04
          4.894e-05
          4.019e-05
          4.019e-05
          3.978e-05
          3.978e-05
          3.978e-05
          3.978e-05
          3.978e-05
          3.677e-05
          3.650e-05
          3.616e-05
          3.616e-05
          3.366e-05
          3.366e-05
          3.366e-05
          3.366e-05
          3.366e-05
          1.564e-05
          1.564e-05
          1.797e-06
          1.797e-06
          1.783e-06
          1.783e-06
          1.783e-06
          1.725e-06
          1.725e-06
          1.725e-06
          1.725e-06
          1.725e-06
          1.725e-06
          1.725e-06
          1.754e-06
          1.754e-06
          1.754e-06
          1.754e-06
          1.754e-06
          1.754e-06
          1.524e-06
          1.582e-06
          1.500e-06
          1.500e-06
          1.215e-06
          1.215e-06
          1.215e-06
          3.995e-08
          2.155e-07
          1.936e-07
          1.936e-07
          1.185e-07
          2.196e-07
          1.430e-08
          1.430e-08
          1.430e-08
          1.430e-08
          1.430e-08
          1.430e-08
          1.430e-08
          1.000e-02
          1.000e-02
          1.000e-02
          1.000e-02
          1.000e-02
          1.000e-02
          1.000e-02
          1.000e-02
          1.000e-02
          1.000e-02
          1.000e-02
          1.000e-02
          1.000e-02
          4.359e-03
          1.144e-03
          1.144e-03
          1.213e-05
          3.419e-06
          3.419e-06
          7.816e-07
          7.816e-07
          7.816e-07
          7.816e-07
          7.816e-07
          7.599e-07
          7.599e-07
          7.599e-07
          7.599e-07
          7.599e-07
          7.603e-07
          5.986e-07
          6.176e-07
          2.027e-07
          2.027e-07
          1.025e-07
          5.736e-08
          7.465e-08
          1.159e-08
          1.413e-08
          1.547e-08
          1.076e-08
          8.605e-09
          9.012e-08
          9.012e-08
          9.745e-08
          6.457e-08
          3.414e-08
          3.373e-08
          3.373e-08
          2.457e-08
          2.457e-08
          5.652e-08
          1.477e-07
          1.477e-07
          1.477e-07
          1.848e-07
          2.593e-07
          1.900e-07
          1.900e-07
          1.907e-07
          1.907e-07
          1.907e-07
          1.907e-07
          1.907e-07
          1.907e-07
          1.000e-02
          1.000e-02
          1.000e-02
          8.538e-03
          5.523e-03
          3.856e-03
          3.856e-03
          2.142e-04
          2.142e-04
          1.930e-05
          1.930e-05
          1.930e-05
          1.930e-05
          1.930e-05
          1.930e-05
          1.000e-02
          1.000e-02
          1.000e-02
          2.009e-03
          9.710e-04
          9.710e-04
          5.970e-05
          1.818e-05
          1.818e-05
          1.179e-05
          1.179e-05
          1.091e-05
          2.724e-06
          2.681e-06
          2.681e-06
          2.681e-06
          2.681e-06
          2.206e-06
          2.206e-06
          2.206e-06
          2.206e-06
          2.206e-06
          2.188e-06
          2.188e-06
          2.188e-06
          2.188e-06
          8.174e-07
          5.179e-07
          4.618e-07
          4.618e-07
          4.236e-07
          4.236e-07
          4.236e-07
          3.670e-07
          2.318e-07
          2.318e-07
          2.318e-07
          3.760e-08
          1.110e-07
          8.297e-08
          8.297e-08
          8.467e-08
          8.467e-08
          8.467e-08
          8.467e-08
          8.467e-08
          8.467e-08
        </DataArray>
        <DataArray Name="weight" format="ascii" type="Float32">
          1.000e+00
          1.000e+00
          1.000e+00
          1.000e+00
          1.000e+00
          1.000e+00
          9.999e-01
          9.997e-01
          9.996e-01
          9.996e-01
          9.996e-01
          9.996e-01
          9.996e-01
          9.996e-01
          9.996e-01
          9.996e-01
          9.616e-01
          9.616e-01
          9.616e-01
          9.616e-01
          9.616e-01
          9.616e-01
          9.611e-01
          9.611e-01
          9.611e-01
          9.611e-01
          9.611e-01
          9.611e-01
          9.611e-01
          9.611e-01
          9.611e-01
          9.592e-01
          9.569e-01
          9.569e-01
          9.569e-01
          9.569e-01
          9.031e-01
          9.031e-01
          1.615e-01
          1.000e+00
          1.000e+00
          1.000e+00
          1.000e+00
          1.000e+00
          1.000e+00
          1.000e+00
          1.000e+00
          9.717e-01
          9.717e-01
          9.717e-01
          9.717e-01
          9.717e-01
          9.717e-01
          9.716e-01
          9.716e-01
          9.716e-01
          9.714e-01
          9.714e-01
          9.714e-01
          9.714e-01
          9.713e-01
          9.713e-01
          9.709e-01
          9.709e-01
          9.709e-01
          9.709e-01
          9.709e-01
          9.709e-01
          2.029e-02
          1.000e+00
          1.000e+00
          1.000e+00
          1.000e+00
          1.000e+00
          1.000e+00
          1.000e+00
          1.000e+00
          1.000e+00
          1.000e+00
          1.000e+00
          1.000e+00
          1.000e+00
          9.999e-01
          9.999e-01
          9.999e-01
          9.999e-01
          9.999e-01
          9.999e-01
          9.995e-01
          9.986e-01
          9.976e-01
          9.976e-01
          9.964e-01
          9.964e-01
          9.948e-01
          9.948e-01
          9.918e-01
          9.918e-01
          9.877e-01
          9.834e-01
          9.834e-01
          9.788e-01
          9.788e-01
          9.748e-01
          9.748e-01
          9.748e-01
          9.748e-01
          9.706e-01
          9.659e-01
          9.659e-01
          9.614e-01
          9.614e-01
          9.563e-01
          9.512e-01
          9.512e-01
          9.512e-01
          9.512e-01
          9.511e-01
          9.511e-01
          9.511e-01
          9.511e-01
          9.511e-01
          9.470e-01
          9.425e-01
          9.355e-01
          9.289e-01
          9.234e-01
          9.234e-01
          9.234e-01
          9.179e-01
          9.130e-01
          9.075e-01
          9.075e-01
          8.903e-01
          8.903e-01
          8.903e-01
          7.463e-01
          7.463e-01
          7.463e-01
          7.463e-01
          7.463e-01
          7.421e-01
          7.421e-01
          7.381e-01
          7.341e-01
          7.341e-01
          7.341e-01
          7.341e-01
          7.341e-01
          3.671e-02
          1.000e+00
          1.000e+00
          1.000e+00
          1.000e+00
          1.000e+00
          1.000e+00
          1.000e+00
          1.000e+00
          1.000e+00
          1.000e+00
          1.000e+00
          9.999e-01
          9.999e-01
          9.998e-01
          9.996e-01
          9.993e-01
          9.993e-01
          9.993e-01
          9.993e-01
          9.993e-01
          9.993e-01
          8.484e-01
          8.484e-01
          8.484e-01
          8.484e-01
          8.484e-01
          8.484e-01
          8.479e-01
          8.479e-01
          8.474e-01
          8.468e-01
          8.468e-01
          8.468e-01
          8.468e-01
          8.454e-01
          8.454e-01
          8.437e-01
          8.437e-01
          8.437e-01
          8.437e-01
          8.437e-01
          8.437e-01
          8.437e-01
          8.437e-01
          8.437e-01
          8.437e-01
          8.404e-01
          8.371e-01
          8.322e-01
          8.288e-01
          8.241e-01
          8.191e-01
          8.191e-01
          8.146e-01
          8.101e-01
          8.058e-01
          8.018e-01
          7.978e-01
          7.978e-01
          7.932e-01
          7.881e-01
          7.881e-01
          7.837e-01
          7.837e-01
          7.791e-01
          7.744e-01
          7.698e-01
          7.698e-01
          7.660e-01
          7.621e-01
          7.621e-01
          7.581e-01
          7.581e-01
          7.537e-01
          7.491e-01
          7.491e-01
          7.446e-01
          7.406e-01
          7.366e-01
          7.366e-01
          7.366e-01
          7.366e-01
          7.366e-01
          7.366e-01
          7.366e-01
          7.366e-01
          7.366e-01
          7.331e-01
          7.297e-01
          7.297e-01
          7.297e-01
          7.263e-01
          7.229e-01
          7.229e-01
          7.197e-01
          7.197e-01
          7.197e-01
          7.165e-01
          7.134e-01
          7.134e-01
          7.134e-01
          7.134e-01
          7.134e-01
          7.134e-01
          7.134e-01
          7.134e-01
          7.102e-01
          7.071e-01
          7.071e-01
          7.071e-01
          7.071e-01
          3.170e-02
          1.000e+00
          1.000e+00
          1.000e+00
          1.000e+00
          1.000e+00
          1.000e+00
          9.999e-01
          9.999e-01
          9.999e-01
          9.999e-01
          9.999e-01
          9.999e-01
          9.999e-01
          9.999e-01
          9.999e-01
          9.997e-01
          9.997e-01
          9.997e-01
          9.997e-01
          9.997e-01
          9.997e-01
          9.997e-01
          9.997e-01
          9.997e-01
          9.997e-01
          9.996e-01
          9.996e-01
          9.993e-01
          9.990e-01
          9.986e-01
          9.982e-01
          9.982e-01
          9.982e-01
          9.976e-01
          9.968e-01
          9.956e-01
          9.940e-01
          9.886e-01
          9.849e-01
          9.849e-01
          9.791e-01
          9.746e-01
          9.746e-01
          9.695e-01
          9.638e-01
          9.638e-01
          9.638e-01
          9.582e-01
          9.582e-01
          9.582e-01
          9.582e-01
          3.419e-02
          1.000e+00
          1.000e+00
          1.000e+00
          1.000e+00
          9.999e-01
          9.999e-01
          9.999e-01
          9.999e-01
          9.999e-01
          9.999e-01
          9.999e-01
          9.999e-01
          9.999e-01
          9.999e-01
          9.999e-01
          9.999e-01
          9.999e-01
          9.999e-01
          9.986e-01
          9.986e-01
          9.986e-01
          9.986e-01
          9.986e-01
          9.986e-01
          9.986e-01
          9.986e-01
          9.944e-01
          9.944e-01
          9.944e-01
          9.944e-01
          9.944e-01
          9.944e-01
          9.944e-01
          9.944e-01
          9.944e-01
          9.944e-01
          9.944e-01
          9.920e-01
          9.848e-01
          9.848e-01
          9.848e-01
          9.848e-01
          9.848e-01
          9.848e-01
          9.848e-01
          9.848e-01
          9.848e-01
          9.848e-01
          9.848e-01
          9.848e-01
          9.848e-01
          9.848e-01
          9.848e-01
          9.848e-01
          9.818e-01
          9.786e-01
          9.786e-01
          9.786e-01
          9.786e-01
          9.786e-01
          9.785e-01
          9.785e-01
          9.785e-01
          9.784e-01
          9.783e-01
          9.783e-01
          9.778e-01
          9.772e-01
          9.772e-01
          9.765e-01
          9.757e-01
          9.757e-01
          9.757e-01
          9.757e-01
          9.757e-01
          9.743e-01
          9.743e-01
          9.724e-01
          9.724e-01
          9.724e-01
          9.724e-01
          9.724e-01
          9.704e-01
          9.704e-01
          9.677e-01
          9.677e-01
          9.677e-01
          9.677e-01
          9.677e-01
          9.133e-01
          9.133e-01
          8.628e-01
          8.628e-01
          8.145e-01
          8.145e-01
          8.145e-01
          7.686e-01
          7.686e-01
          1.369e-01
          1.000e+00
          1.000e+00
          1.000e+00
          1.000e+00
          1.000e+00
          1.000e+00
          1.000e+00
          1.000e+00
          9.999e-01
          9.999e-01
          9.999e-01
          9.999e-01
          9.999e-01
          9.828e-01
          9.828e-01
          9.828e-01
          9.828e-01
          9.828e-01
          9.828e-01
          9.828e-01
          9.828e-01
          9.828e-01
          9.828e-01
          9.828e-01
          9.828e-01
          9.828e-01
          9.828e-01
          9.828e-01
          9.828e-01
          9.828e-01
          9.827e-01
          9.824e-01
          9.821e-01
          9.821e-01
          9.817e-01
          9.817e-01
          9.817e-01
          9.817e-01
          9.817e-01
          9.817e-01
          5.898e-01
          3.360e-01
          3.360e-01
          3.360e-01
          3.360e-01
          3.360e-01
          3.360e-01
          3.360e-01
          3.358e-01
          3.358e-01
          3.356e-01
          3.356e-01
          3.344e-01
          3.344e-01
          3.344e-01
          3.184e-01
          3.184e-01
          3.184e-01
          3.184e-01
          3.184e-01
          3.184e-01
          3.184e-01
          3.173e-01
          3.173e-01
          3.173e-01
          3.173e-01
          3.173e-01
          3.173e-01
          3.167e-01
          3.161e-01
          3.154e-01
          3.154e-01
          3.154e-01
          3.154e-01
          3.154e-01
          3.147e-01
          3.129e-01
          3.129e-01
          3.129e-01
          3.116e-01
          3.101e-01
          3.088e-01
          3.088e-01
          3.088e-01
          3.088e-01
          3.088e-01
          3.088e-01
          4.928e-03
          1.000e+00
          1.000e+00
          1.000e+00
          1.000e+00
          1.000e+00
          1.000e+00
          1.000e+00
          1.000e+00
          1.000e+00
          1.000e+00
          1.000e+00
          1.000e+00
          1.000e+00
          1.000e+00
          9.999e-01
          9.999e-01
          9.999e-01
          9.991e-01
          9.991e-01
          9.977e-01
          9.977e-01
          9.977e-01
          9.977e-01
          9.977e-01
          9.415e-01
          9.415e-01
          9.415e-01
          9.415e-01
          9.415e-01
          9.389e-01
          9.389e-01
          9.389e-01
          9.361e-01
          9.361e-01
          9.322e-01
          9.276e-01
          9.276e-01
          9.227e-01
          9.167e-01
          9.108e-01
          9.051e-01
          8.992e-01
          8.931e-01
          8.931e-01
          8.886e-01
          8.886e-01
          8.838e-01
          8.837e-01
          8.837e-01
          8.785e-01
          8.785e-01
          8.732e-01
          8.684e-01
          8.684e-01
          8.684e-01
          8.645e-01
          8.608e-01
          8.574e-01
          8.574e-01
          8.538e-01
          8.538e-01
          8.538e-01
          8.538e-01
          8.538e-01
          5.434e-02
          1.000e+00
          1.000e+00
          1.000e+00
          1.000e+00
          9.999e-01
          9.999e-01
          9.999e-01
          9.999e-01
          9.999e-01
          9.997e-01
          9.997e-01
          9.997e-01
          9.997e-01
          9.997e-01
          3.107e-02
          1.000e+00
          1.000e+00
          1.000e+00
          1.000e+00
          9.999e-01
          9.999e-01
          9.998e-01
          9.995e-01
          9.995e-01
          9.989e-01
          9.989e-01
          9.981e-01
          9.974e-01
          9.958e-01
          9.958e-01
          9.958e-01
          9.958e-01
          9.958e-01
          9.958e-01
          9.958e-01
          9.958e-01
          9.958e-01
          4.417e-01
          4.417e-01
          4.417e-01
          4.417e-01
          4.409e-01
          4.397e-01
          4.397e-01
          4.397e-01
          4.383e-01
          4.383e-01
          4.383e-01
          4.368e-01
          4.352e-01
          4.352e-01
          4.352e-01
          4.335e-01
          4.310e-01
          4.289e-01
          4.289e-01
          4.267e-01
          4.267e-01
          4.267e-01
          4.267e-01
          4.267e-01
          1.851e-02
        </DataArray>
        <DataArray Name="cell" format="ascii" type="Float32">
          120
          110
          100
          100
          100
          100
          100
          100
          100
          100
          100
          100
          110
          110
          120
          200
          200
          120
          110
          110
          100
          100
          100
          110
          120
          200
          200
          120
          110
          100
          100
          100
          100
          110
          120
          200
          200
          200
          200
          120
          110
          100
          100
          100
          110
          120
          200
          200
          200
          120
          110
          100
          100
          100
          100
          100
          100
          100
          100
          100
          100
          100
          100
          100
          100
          110
          120
          200
          200
          120
          110
          100
          100
          100
          110
          120
          200
          200
          120
          110
          100
          100
          100
          100
          100
          100
          100
          100
          100
          100
          100
          100
          100
          100
          100
          100
          100
          100
          100
          100
          100
          100
          100
          100
          100
          100
          100
          100
          100
          100
          100
          100
          100
          100
          110
          120
          200
          200
          200
          120
          110
          100
          100
          100
          100
          100
          100
          100
          100
          100
          100
          100
          110
          110
          120
          200
          200
          120
          110
          100
          100
          100
          100
          100
          100
          110
          120
          200
          200
          200
          120
          110
          100
          100
          100
          100
          100
          100
          100
          100
          100
          100
          100
          100
          100
          100
          110
          120
          200
          200
          200
          200
          120
          110
          100
          100
          100
          100
          100
          100
          100
          100
          100
          100
          100
          100
          100
          100
          110
          120
          200
          200
          120
          110
          110
          100
          100
          100
          100
          100
          100
          100
          100
          100
          100
          100
          100
          100
          100
          100
          100
          100
          100
          100
          100
          100
          100
          100
          100
          100
          100
          100
          100
          100
          100
          100
          100
          100
          100
          110
          120
          200
          200
          120
          110
          100
          100
          100
          100
          100
          100
          100
          100
          100
          100
          100
          100
          100
          100
          110
          120
          200
          200
          120
          110
          100
          100
          100
          110
          120
          200
          200
          120
          110
          100
          100
          100
          100
          100
          110
          120
          200
          200
          120
          110
          100
          100
          100
          100
          110
          120
          200
          200
          120
          110
          100
          100
          100
          100
          100
          100
          100
          100
          100
          100
          100
          100
          100
          100
          100
          100
          100
          100
          100
          100
          100
          100
          100
          100
          100
          110
          120
          200
          200
          120
          110