<VTKFile byte_order="LittleEndian" type="PolyData" version="0.1">
  <PolyData>
    <Piece NumberOfLines="6450" NumberOfPoints="6450" NumberOfPolys="0" NumberOfStrips="0" NumberOfVerts="0">
      <CellData Scalars="Scalars">
        <DataArray Name="energy" format="ascii" type="Float32">
          1.000e-02
          1.000e-02
          1.000e-02
          9.473e-04
          2.374e-04
          2.374e-04
          2.374e-04
          2.374e-04
          2.374e-04
          2.362e-04
          2.328e-04
          2.328e-04
          2.328e-04
          2.328e-04
          2.328e-04
          4.396e-05
          4.396e-05
          4.396e-05
          4.396e-05
          4.359e-05
          4.359e-05
          4.333e-05
          4.333e-05
          4.333e-05
          4.333e-05
          4.333e-05
          2.413e-06
          1.215e-06
          1.215e-06
          7.858e-07
          6.303e-07
          6.303e-07
          6.303e-07
          6.303e-07
          6.303e-07
          6.303e-07
          6.303e-07
          6.303e-07
          2.538e-07
          2.515e-07
          2.515e-07
          2.304e-07
          2.304e-07
          1.047e-07
          1.047e-07
          9.913e-08
          1.271e-07
          1.271e-07
          1.271e-07
          1.271e-07
          1.271e-07
          1.271e-07
          1.271e-07
          1.271e-07
          8.793e-08
          5.488e-08
          4.680e-08
          3.842e-07
          3.842e-07
          3.842e-07
          3.842e-07
          3.842e-07
          3.842e-07
          3.842e-07
          3.842e-07
          3.842e-07
          2.237e-07
          2.237e-07
          2.237e-07
          2.237e-07
          1.471e-07
          1.505e-07
          1.505e-07
          1.505e-07
          1.000e-02
          1.000e-02
          1.000e-02
          1.000e-02
          3.905e-03
          3.905e-03
          3.905e-03
          3.905e-03
          3.905e-03
          3.608e-03
          3.573e-03
          3.521e-03
          3.521e-03
          3.521e-03
          3.521e-03
          3.521e-03
          3.521e-03
          2.062e-04
          2.062e-04
          2.062e-04
          7.996e-05
          7.996e-05
          1.324e-05
          1.324e-05
          1.393e-06
          1.022e-06
          1.022e-06
          9.588e-07
          1.384e-07
          4.914e-08
          5.515e-08
          5.515e-08
          3.940e-08
          4.567e-08
          4.567e-08
          4.567e-08
          4.567e-08
          4.475e-08
          3.993e-08
          3.993e-08
          3.993e-08
          1.000e-02
          1.000e-02
          1.000e-02
          8.823e-04
          8.823e-04
          8.823e-04
          8.823e-04
          8.823e-04
          8.823e-04
          8.823e-04
          8.823e-04
          4.510e-04
          4.510e-04
          2.932e-04
          2.932e-04
          2.932e-04
          2.932e-04
          2.932e-04
          2.932e-04
          2.818e-04
          2.818e-04
          2.818e-04
          2.786e-04
          2.786e-04
          2.786e-04
          2.786e-04
          2.786e-04
          4.709e-05
          3.037e-05
          1.968e-06
          1.826e-06
          1.826e-06
          1.826e-06
          1.826e-06
          1.826e-06
          1.676e-06
          1.648e-06
          1.615e-06
          1.615e-06
          1.615e-06
          1.615e-06
          1.411e-06
          1.631e-07
          1.845e-07
          8.231e-08
          8.231e-08
          8.231e-08
          9.897e-08
          9.897e-08
          6.072e-08
          6.072e-08
          6.072e-08
          6.072e-08
          9.162e-08
          9.162e-08
          9.162e-08
          9.162e-08
          9.062e-08
          9.062e-08
          8.556e-08
          1.418e-07
          1.418e-07
          1.418e-07
          1.418e-07
          1.430e-07
          1.341e-07
          1.341e-07
          1.341e-07
          1.000e-02
          1.000e-02
          1.000e-02
          8.900e-03
          8.733e-03
          2.544e-03
          2.544e-03
          2.497e-03
          2.497e-03
          2.403e-03
          2.403e-03
          2.403e-03
          2.262e-04
          2.262e-04
          2.262e-04
          2.262e-04
          2.233e-04
          2.233e-04
          2.233e-04
          1.000e-02
          1.000e-02
          1.000e-02
          3.967e-03
          3.967e-03
          3.967e-03
          2.948e-03
          2.948e-03
          2.948e-03
          2.948e-03
          2.411e-03
          2.411e-03
          2.411e-03
          2.411e-03
          3.753e-04
          3.083e-04
          3.083e-04
          3.083e-04
          3.083e-04
          3.083e-04
          2.421e-04
          2.421e-04
          2.421e-04
          2.421e-04
          2.421e-04
          9.465e-05
          9.465e-05
          9.465e-05
          9.465e-05
          9.465e-05
          9.465e-05
          9.465e-05
          8.850e-05
          8.850e-05
          1.883e-06
          1.883e-06
          1.068e-06
          7.502e-07
          1.524e-07
          1.321e-07
          1.321e-07
          1.321e-07
          1.321e-07
          2.437e-07
          2.479e-07
          2.479e-07
          2.479e-07
          2.479e-07
          2.479e-07
          2.479e-07
          2.730e-07
          2.639e-08
          4.419e-08
          4.115e-08
          5.393e-08
          1.458e-07
          8.329e-08
          1.222e-07
          9.487e-08
          9.078e-08
          1.148e-07
          7.337e-08
          1.079e-07
          6.613e-08
          6.628e-08
          4.557e-08
          5.251e-08
          7.037e-08
          7.037e-08
          7.076e-09
          1.740e-08
          5.169e-09
          5.467e-09
          5.467e-09
          5.467e-09
          5.467e-09
          7.664e-09
          6.847e-09
          6.847e-09
          6.847e-09
          1.000e-02
          1.000e-02
          1.000e-02
          9.033e-03
          1.889e-03
          9.618e-05
          9.618e-05
          1.063e-05
          1.063e-05
          1.063e-05
          1.063e-05
          9.992e-06
          9.992e-06
          9.992e-06
          9.992e-06
          9.992e-06
          8.794e-06
          8.794e-06
          8.794e-06
          8.794e-06
          8.650e-06
          8.650e-06
          8.650e-06
          1.000e-02
          1.000e-02
          1.000e-02
          1.633e-03
          1.633e-03
          6.525e-04
          6.525e-04
          6.525e-04
          6.525e-04
          5.486e-04
          5.455e-04
          5.455e-04
          5.455e-04
          5.455e-04
          5.455e-04
          5.455e-04
          5.455e-04
          5.455e-04
          5.455e-04
          5.455e-04
          5.455e-04
          5.455e-04
          2.608e-04
          2.608e-04
          2.608e-04
          2.608e-04
          2.608e-04
          2.608e-04
          2.608e-04
          1.000e-02
          1.000e-02
          1.000e-02
          1.000e-02
          1.000e-02
          1.000e-02
          1.000e-02
          1.000e-02
          1.000e-02
          1.000e-02
          1.000e-02
          4.368e-03
          4.368e-03
          4.368e-03
          4.368e-03
          4.368e-03
          4.368e-03
          4.368e-03
          4.368e-03
          4.368e-03
          4.368e-03
          4.368e-03
          4.368e-03
          3.849e-03
          3.812e-03
          3.812e-03
          3.812e-03
          3.812e-03
          3.812e-03
          3.812e-03
          3.812e-03
          3.812e-03
          3.308e-03
          3.303e-03
          3.303e-03
          3.303e-03
          3.303e-03
          3.303e-03
          6.064e-04
          3.303e-05
          3.303e-05
          7.517e-07
          4.189e-07
          4.189e-07
          4.189e-07
          4.189e-07
          4.189e-07
          4.189e-07
          4.189e-07
          2.336e-07
          2.336e-07
          2.336e-07
          2.336e-07
          2.417e-07
          2.417e-07
          2.417e-07
          2.417e-07
          2.417e-07
          2.371e-07
          2.429e-07
          2.145e-07
          1.722e-07
          2.097e-07
          1.823e-07
          2.466e-07
          7.792e-08
          7.185e-08
          4.937e-08
          4.937e-08
          4.937e-08
          4.937e-08
          4.937e-08
          4.937e-08
          4.937e-08
          1.000e-02
          1.000e-02
          1.000e-02
          8.538e-03
          5.523e-03
          3.856e-03
          3.856e-03
          2.142e-04
          2.142e-04
          1.929e-05
          5.766e-06
          2.025e-06
          2.025e-06
          2.025e-06
          2.025e-06
          1.878e-06
          1.878e-06
          1.229e-06
          1.229e-06
          1.238e-06
          1.238e-06
          1.238e-06
          1.238e-06
          1.667e-07
          1.667e-07
          1.225e-07
          1.225e-07
          3.904e-08
          3.904e-08
          3.904e-08
          3.904e-08
          3.904e-08
          3.904e-08
          3.904e-08
          1.000e-02
          1.000e-02
          1.000e-02
          2.009e-03
          9.710e-04
          9.710e-04
          5.970e-05
          5.970e-05
          7.588e-06
          7.588e-06
          7.588e-06
          7.588e-06
          7.588e-06
          7.588e-06
          7.588e-06
          7.588e-06
          1.945e-06
          1.178e-06
          1.178e-06
          1.178e-06
          1.178e-06
          1.178e-06
          1.178e-06
          1.178e-06
          1.178e-06
          1.178e-06
          9.786e-07
          7.240e-07
          6.654e-07
          1.721e-07
          9.989e-08
          9.989e-08
          9.021e-08
          1.172e-07
          1.518e-07
          1.518e-07
          1.518e-07
          1.518e-07
          1.518e-07
          1.518e-07
          1.518e-07
          1.662e-07
          1.996e-07
          1.996e-07
          2.053e-07
          2.657e-07
          7.142e-08
          7.138e-08
          6.548e-08
          6.548e-08
          7.891e-08
          7.286e-08
          5.613e-08
          5.613e-08
          5.613e-08
          5.613e-08
          5.522e-08
          5.142e-08
          5.142e-08
          5.142e-08
          5.142e-08
          1.280e-07
          1.133e-07
          1.133e-07
          1.133e-07
          1.133e-07
          1.133e-07
          1.133e-07
          1.133e-07
          1.578e-07
          1.980e-07
          5.970e-09
          2.858e-08
          8.181e-09
          1.231e-07
          1.236e-07
          1.360e-07
          6.617e-08
          6.307e-08
          2.504e-08
          2.389e-08
          2.389e-08
          1.446e-08
          1.446e-08
          2.258e-08
          1.458e-07
          1.547e-07
          1.547e-07
          1.547e-07
          1.547e-07
          1.547e-07
          1.547e-07
          1.547e-07
          1.547e-07
          1.469e-07
          1.469e-07
          1.713e-07
          6.076e-08
          6.076e-08
          6.076e-08
          6.076e-08
          6.076e-08
          6.058e-08
          6.058e-08
          6.058e-08
          6.058e-08
          3.323e-08
          5.318e-08
          5.318e-08
          5.318e-08
          5.318e-08
          5.318e-08
          5.318e-08
          1.000e-02
          1.000e-02
          1.000e-02
          9.407e-03
          9.407e-03
          9.407e-03
          9.407e-03
          9.407e-03
          7.635e-03
          7.562e-03
          7.543e-03
          7.543e-03
          7.543e-03
          7.224e-03
          7.044e-03
          7.044e-03
          7.044e-03
          6.994e-03
          6.994e-03
          6.994e-03
          6.994e-03
          6.994e-03
          6.994e-03
          6.994e-03
          6.994e-03
          6.994e-03
          6.994e-03
          6.994e-03
          6.994e-03
          6.994e-03
          4.399e-03
          4.399e-03
          4.399e-03
          4.399e-03
          4.399e-03
          4.399e-03
          4.399e-03
          4.399e-03
          4.399e-03
          7.882e-04
          7.882e-04
          7.882e-04
          7.882e-04
          7.882e-04
          7.105e-04
          6.999e-04
          6.999e-04
          6.999e-04
          6.999e-04
          4.406e-04
          4.391e-04
          5.743e-05
          5.743e-05
          4.389e-05
          3.934e-05
          3.934e-05
          1.401e-05
          1.019e-05
          1.019e-05
          1.019e-05
          1.019e-05
          1.019e-05
          1.019e-05
          1.019e-05
          1.019e-05
          9.715e-07
          8.347e-07
          8.347e-07
          8.646e-07
          8.796e-07
          8.627e-07
          8.627e-07
          8.627e-07
          8.627e-07
          8.464e-07
          8.817e-07
          8.817e-07
          8.817e-07
          8.817e-07
          8.817e-07
          5.629e-07
          5.671e-07
          5.671e-07
          4.310e-07
          4.310e-07
          4.310e-07
          4.310e-07
          4.310e-07
          4.114e-07
          3.382e-07
          3.382e-07
          3.382e-07
          1.000e-02
          1.000e-02
          1.000e-02
          3.140e-03
          9.266e-05
          9.266e-05
          9.266e-05
          4.250e-06
          7.304e-07
          7.524e-07
          7.524e-07
          3.193e-07
          3.193e-07
          3.193e-07
          3.193e-07
          3.193e-07
          2.815e-07
          2.815e-07
          2.815e-07
          2.815e-07
          2.815e-07
          2.815e-07
          1.351e-07
          1.351e-07
          1.297e-07
          1.297e-07
          1.285e-07
          1.285e-07
          1.285e-07
          1.243e-07
          1.243e-07
          1.243e-07
          1.243e-07
          1.243e-07
          1.243e-07
          1.243e-07
          1.243e-07
          1.243e-07
          1.330e-07
          1.292e-07
          1.292e-07
          1.131e-07
          1.908e-07
          7.329e-08
          7.329e-08
          6.042e-08
          1.180e-07
          1.180e-07
          2.420e-08
          1.272e-08
          1.272e-08
          1.272e-08
          1.272e-08
          1.272e-08
          1.272e-08
          1.000e-02
          1.000e-02
          1.000e-02
          1.000e-02
          1.000e-02
          6.717e-03
          6.717e-03
          6.717e-03
          6.717e-03
          6.678e-03
          6.678e-03
          6.678e-03
          6.678e-03
          6.678e-03
          6.678e-03
          5.793e-03
          4.887e-03
          1.644e-03
          1.644e-03
          1.644e-03
          1.644e-03
          1.540e-03
          1.540e-03
          1.540e-03
          1.540e-03
          1.540e-03
          1.540e-03
          1.540e-03
          1.039e-03
          2.251e-05
          2.004e-05
          2.004e-05
          2.004e-05
          2.004e-05
          2.004e-05
          2.004e-05
          2.004e-05
          1.930e-05
          1.930e-05
          1.930e-05
          1.930e-05
          1.724e-05
          1.474e-05
          1.474e-05
          1.474e-05
          1.474e-05
          1.416e-05
          4.336e-06
          4.336e-06
          2.228e-06
          4.735e-07
          1.786e-07
          1.786e-07
          1.786e-07
          1.857e-07
          1.857e-07
          1.857e-07
          1.857e-07
          2.068e-07
          2.068e-07
          2.068e-07
          2.068e-07
          2.304e-07
          2.356e-07
          2.356e-07
          2.356e-07
          2.356e-07
          2.356e-07
          2.356e-07
          1.928e-07
          1.928e-07
          1.928e-07
          1.928e-07
          1.928e-07
          1.928e-07
          1.000e-02
          1.000e-02
          1.000e-02
          2.640e-03
          2.422e-03
          2.422e-03
          2.203e-03
          6.576e-04
          9.417e-05
          9.417e-05
          3.737e-07
          3.737e-07
          3.737e-07
          9.834e-08
          1.012e-07
          1.012e-07
          5.921e-08
          1.171e-07
          1.409e-07
          1.409e-07
          3.156e-08
          2.089e-07
          2.089e-07
          1.188e-07
          1.188e-07
          1.188e-07
          1.188e-07
          1.188e-07
          1.536e-07
          1.536e-07
          1.536e-07
          1.536e-07
          3.034e-07
          3.034e-07
          3.034e-07
          3.034e-07
          3.174e-07
          3.174e-07
          3.174e-07
          3.174e-07
          3.174e-07
          1.874e-07
          4.311e-08
          4.311e-08
          2.876e-08
          2.876e-08
          1.040e-07
          1.040e-07
          1.040e-07
          5.782e-08
          7.289e-08
          7.289e-08
          7.289e-08
          7.328e-08
          7.426e-08
          7.426e-08
          7.426e-08
          7.579e-08
          6.050e-08
          1.753e-07
          1.441e-07
          1.441e-07
          1.441e-07
          1.441e-07
          1.307e-07
          1.530e-07
          2.254e-07
          2.254e-07
          2.254e-07
          2.254e-07
          2.254e-07
          2.254e-07
          2.254e-07
          2.254e-07
          2.254e-07
          2.303e-07
          2.934e-07
          2.994e-07
          2.994e-07
          2.994e-07
          2.994e-07
          2.994e-07
          2.258e-07
          2.268e-07
          2.268e-07
          2.268e-07
          2.268e-07
          2.482e-07
          2.482e-07
          2.482e-07
          2.482e-07
          3.129e-07
          3.806e-08
          1.009e-07
          4.979e-08
          7.007e-08
          1.786e-08
          2.251e-08
          8.856e-08
          9.745e-08
          8.724e-08
          1.550e-07
          9.791e-08
          8.483e-08
          8.483e-08
          8.483e-08
          8.483e-08
          8.483e-08
          1.225e-07
          1.225e-07
          1.225e-07
          1.225e-07
          1.225e-07
          7.400e-08
          7.400e-08
          5.670e-08
          5.670e-08
          5.670e-08
          5.670e-08
          5.670e-08
          5.670e-08
          1.000e-02
          1.000e-02
          1.000e-02
          1.000e-02
          6.491e-03
          6.491e-03
          1.723e-03
          4.849e-04
          4.849e-04
          4.849e-04
          4.849e-04
          4.849e-04
          4.849e-04
          4.849e-04
          4.230e-04
          1.428e-04
          1.428e-04
          4.052e-05
          1.227e-05
          1.227e-05
          1.217e-05
          1.217e-05
          1.048e-05
          3.455e-06
          3.455e-06
          3.455e-06
          1.337e-06
          1.337e-06
          1.337e-06
          1.337e-06
          1.337e-06
          8.370e-07
          5.987e-07
          6.186e-07
          4.721e-07
          4.721e-07
          4.721e-07
          3.498e-07
          2.800e-07
          2.800e-07
          1.482e-07
          8.156e-08
          8.156e-08
          8.156e-08
          8.156e-08
          8.836e-08
          8.092e-08
          6.714e-08
          6.911e-08
          6.911e-08
          6.911e-08
          1.000e-02
          1.000e-02
          9.595e-03
          9.595e-03
          9.595e-03
          9.595e-03
          9.595e-03
          9.595e-03
          1.150e-03
          1.146e-03
          1.146e-03
          1.146e-03
          1.146e-03
          1.146e-03
          1.132e-03
          1.114e-03
          1.096e-03
          1.096e-03
          1.096e-03
          1.096e-03
          1.471e-04
          1.471e-04
          1.471e-04
          1.471e-04
          1.471e-04
          1.471e-04
          1.471e-04
          1.471e-04
          1.765e-05
          1.765e-05
          9.098e-06
          9.071e-06
          1.600e-06
          1.596e-06
          1.288e-06
          5.826e-07
          4.136e-07
          4.932e-07
          1.758e-07
          1.160e-07
          1.217e-07
          2.221e-07
          2.234e-07
          2.114e-07
          2.114e-07
          2.114e-07
          2.114e-07
          2.114e-07
          2.114e-07
          2.114e-07
          1.000e-02
          1.000e-02
          1.000e-02
          6.716e-03
          6.531e-03
          6.531e-03
          6.531e-03
          6.531e-03
          6.531e-03
          6.531e-03
          6.518e-03
          6.477e-03
          6.449e-03
          6.449e-03
          6.368e-03
          5.231e-03
          5.231e-03
          5.231e-03
          5.231e-03
          5.231e-03
          4.817e-03
          3.268e-03
          3.268e-03
          3.268e-03
          3.268e-03
          3.268e-03
          3.268e-03
          3.268e-03
          3.254e-03
          3.248e-03
          3.207e-03
          3.165e-03
          3.066e-03
          3.066e-03
          2.423e-03
          2.423e-03
          2.423e-03
          2.423e-03
          2.423e-03
          2.423e-03
          2.423e-03
          2.423e-03
          2.423e-03
          2.245e-03
          2.245e-03
          2.245e-03
          2.245e-03
          9.338e-04
          9.338e-04
          3.546e-04
          3.254e-04
          6.453e-05
          6.453e-05
          3.141e-06
          3.141e-06
          3.141e-06
          2.593e-06
          1.609e-06
          1.609e-06
          1.609e-06
          1.609e-06
          1.191e-06
          1.047e-06
          1.047e-06
          1.047e-06
          1.047e-06
          1.047e-06
          8.931e-07
          8.931e-07
          8.931e-07
          1.858e-07
          1.858e-07
          1.858e-07
          1.858e-07
          1.316e-07
          1.316e-07
          1.316e-07
          1.316e-07
          1.316e-07
          1.720e-07
          1.720e-07
          1.726e-07
          1.726e-07
          1.523e-07
          1.523e-07
          1.250e-07
          4.487e-09
          1.005e-08
          3.072e-08
          1.695e-08
          1.784e-08
          2.359e-08
          5.830e-08
          1.002e-07
          1.002e-07
          1.808e-07
          1.726e-07
          1.726e-07
          6.829e-08
          6.829e-08
          6.475e-08
          7.689e-08
          7.689e-08
          7.689e-08
          7.689e-08
          7.689e-08
          7.689e-08
          7.689e-08
          7.689e-08
          1.000e-02
          1.000e-02
          1.000e-02
          1.000e-02
          5.568e-03
          5.568e-03
          5.568e-03
          5.568e-03
          5.568e-03
          4.573e-03
          4.538e-03
          4.538e-03
          4.538e-03
          4.538e-03
          9.109e-04
          6.263e-04
          5.895e-04
          7.715e-05
          8.851e-06
          8.851e-06
          8.851e-06
          8.851e-06
          8.839e-06
          8.839e-06
          8.769e-06
          8.719e-06
          8.636e-06
          8.636e-06
          8.636e-06
          1.000e-02
          1.000e-02
          1.000e-02
          1.000e-02
          9.647e-03
          8.604e-03
          8.604e-03
          9.139e-04
          6.363e-04
          6.363e-04
          6.363e-04
          3.901e-04
          1.237e-04
          1.237e-04
          2.309e-05
          1.460e-05
          4.576e-06
          4.576e-06
          4.576e-06
          4.576e-06
          4.576e-06
          4.377e-06
          4.377e-06
          4.377e-06
          4.340e-06
          4.340e-06
          2.973e-06
          2.973e-06
          2.381e-06
          2.381e-06
          2.381e-06
          2.381e-06
          2.381e-06
          2.447e-06
          2.447e-06
          2.447e-06
          2.447e-06
          1.100e-06
          9.774e-07
          9.774e-07
          9.774e-07
          9.774e-07
          9.774e-07
          9.774e-07
          9.774e-07
          3.373e-07
          3.373e-07
          3.373e-07
          3.373e-07
          3.176e-07
          3.379e-07
          3.016e-07
          2.795e-07
          2.795e-07
          2.795e-07
          2.795e-07
          1.861e-07
          5.201e-08
          7.813e-08
          6.314e-08
          6.314e-08
          6.718e-08
          6.980e-08
          7.529e-08
          8.181e-08
          8.294e-08
          8.294e-08
          6.364e-08
          6.364e-08
          1.158e-07
          1.172e-07
          1.443e-07
          6.316e-08
          6.316e-08
          6.316e-08
          6.316e-08
          6.316e-08
          6.316e-08
          1.000e-02
          1.000e-02
          1.000e-02
          9.655e-03
          4.099e-03
          4.099e-03
          4.099e-03
          3.258e-03
          3.258e-03
          3.258e-03
          3.258e-03
          3.258e-03
          2.907e-03
          2.874e-03
          2.874e-03
          2.874e-03
          2.874e-03
          4.084e-04
          6.051e-05
          6.051e-05
          5.385e-05
          5.385e-05
          9.063e-06
          9.063e-06
          9.063e-06
          8.880e-07
          8.880e-07
          3.998e-07
          3.998e-07
          3.998e-07
          3.998e-07
          3.531e-07
          2.446e-07
          7.256e-08
          4.603e-08
          4.603e-08
          4.603e-08
          4.603e-08
          4.603e-08
          4.603e-08
          4.603e-08
          2.875e-08
          2.875e-08
          1.707e-07
          1.698e-07
          1.698e-07
          9.892e-08
          1.060e-07
          1.060e-07
          1.120e-07
          9.409e-08
          9.409e-08
          9.409e-08
          9.409e-08
          9.615e-08
          8.449e-08
          8.449e-08
          8.449e-08
          1.000e-02
          1.000e-02
          1.000e-02
          1.000e-02
          2.492e-03
          2.492e-03
          1.965e-03
          1.237e-03
          1.237e-03
          5.639e-04
          5.639e-04
          5.639e-04
          5.639e-04
          5.639e-04
          5.639e-04
          5.639e-04
          5.639e-04
          5.639e-04
          5.639e-04
          5.639e-04
          3.680e-04
          1.245e-05
          1.245e-05
          1.245e-05
          2.251e-06
          2.251e-06
          2.251e-06
          2.251e-06
          2.282e-06
          2.282e-06
          2.282e-06
          2.282e-06
          1.731e-06
          1.731e-06
          1.411e-06
          4.388e-07
          4.388e-07
          4.388e-07
          4.388e-07
          4.245e-07
          4.245e-07
          4.245e-07
          1.000e-02
          1.000e-02
          1.000e-02
          8.936e-03
          7.153e-03
          6.338e-03
          1.575e-03
          1.575e-03
          1.427e-03
          1.384e-03
          1.500e-05
          1.500e-05
          1.500e-05
          1.500e-05
          1.500e-05
          1.500e-05
          1.500e-05
          6.399e-06
          6.399e-06
          6.399e-06
          6.399e-06
          6.125e-06
          6.125e-06
          1.665e-06
          2.554e-07
          2.554e-07
          2.554e-07
          2.554e-07
          2.554e-07
          2.313e-07
          2.313e-07
          2.313e-07
          2.313e-07
          9.672e-08
          1.070e-07
          1.070e-07
          1.439e-08
          1.008e-08
          1.003e-08
          1.289e-08
          8.153e-09
          8.153e-09
          3.145e-09
          1.015e-08
          1.507e-08
          3.795e-08
          2.709e-08
          4.336e-08
          3.725e-08
          3.725e-08
          3.725e-08
          2.107e-08
          2.107e-08
          2.428e-08
          4.564e-08
          4.564e-08
          4.564e-08
          4.564e-08
          4.564e-08
          4.564e-08
          1.000e-02
          1.000e-02
          1.000e-02
          1.000e-02
          1.000e-02
          1.000e-02
          1.000e-02
          9.033e-03
          9.033e-03
          7.716e-03
          7.716e-03
          7.716e-03
          7.716e-03
          1.129e-03
          8.577e-04
          8.577e-04
          5.185e-04
          5.185e-04
          5.185e-04
          5.185e-04
          5.175e-04
          4.210e-04
          4.210e-04
          4.210e-04
          4.210e-04
          3.587e-04
          3.587e-04
          1.002e-04
          1.002e-04
          8.646e-05
          8.646e-05
          8.646e-05
          8.646e-05
          8.590e-05
          8.590e-05
          8.590e-05
          8.590e-05
          1.338e-05
          7.867e-06
          7.851e-06
          7.851e-06
          1.907e-06
          1.857e-06
          1.857e-06
          1.857e-06
          1.857e-06
          1.857e-06
          1.839e-06
          1.868e-06
          1.800e-06
          1.800e-06
          1.800e-06
          1.800e-06
          1.800e-06
          3.947e-07
          2.286e-07
          2.286e-07
          2.173e-07
          2.173e-07
          5.260e-08
          1.034e-08
          1.477e-08
          1.532e-08
          7.083e-08
          5.063e-08
          9.114e-08
          9.021e-08
          9.021e-08
          9.527e-08
          9.527e-08
          9.527e-08
          9.449e-08
          1.011e-07
          9.105e-08
          4.467e-08
          4.628e-08
          5.034e-08
          5.034e-08
          5.034e-08
          1.000e-02
          1.000e-02
          1.000e-02
          1.000e-02
          1.000e-02
          1.000e-02
          1.000e-02
          8.371e-03
          8.274e-03
          7.160e-03
          7.160e-03
          7.160e-03
          7.160e-03
          7.160e-03
          4.457e-03
          4.237e-03
          2.501e-03
          2.284e-03
          1.667e-03
          1.667e-03
          1.567e-03
          3.339e-04
          3.339e-04
          3.315e-04
          3.315e-04
          3.315e-04
          3.315e-04
          3.315e-04
          3.315e-04
          3.315e-04
          3.315e-04