<VTKFile byte_order="LittleEndian" type="PolyData" version="0.1">
  <PolyData>
    <Piece NumberOfLines="50" NumberOfPoints="3009" NumberOfPolys="0" NumberOfStrips="0" NumberOfVerts="0">
      <PointData Scalars="Scalars">
        <DataArray Name="energy" format="ascii" type="Float32">1.000e-02 9.473e-04 2.374e-04 2.362e-04 2.328e-04 4.396e-05 4.359e-05 4.333e-05 2.413e-06 1.215e-06 7.858e-07 6.303e-07 2.538e-07 2.515e-07 2.304e-07 1.047e-07 9.913e-08 1.271e-07 8.793e-08 5.488e-08 4.680e-08 3.842e-07 2.237e-07 1.471e-07 1.505e-07 1.505e-07 1.505e-07 1.000e-02 3.905e-03 3.905e-03 3.608e-03 3.573e-03 3.521e-03 2.062e-04 7.996e-05 1.324e-05 1.393e-06 1.022e-06 9.588e-07 1.384e-07 4.914e-08 5.515e-08 3.940e-08 4.567e-08 4.475e-08 3.993e-08 3.993e-08 3.993e-08 1.000e-02 8.823e-04 4.510e-04 2.932e-04 2.818e-04 2.786e-04 4.709e-05 3.037e-05 1.968e-06 1.826e-06 1.676e-06 1.648e-06 1.615e-06 1.411e-06 1.631e-07 1.845e-07 8.231e-08 9.897e-08 6.072e-08 9.162e-08 9.062e-08 8.556e-08 1.418e-07 1.430e-07 1.341e-07 1.341e-07 1.341e-07 1.000e-02 8.900e-03 8.733e-03 2.544e-03 2.497e-03 2.403e-03 2.262e-04 2.233e-04 2.233e-04 2.233e-04 1.000e-02 3.967e-03 2.948e-03 2.411e-03 3.753e-04 3.083e-04 2.421e-04 9.465e-05 8.850e-05 1.883e-06 1.068e-06 7.502e-07 1.524e-07 1.321e-07 2.437e-07 2.479e-07 2.730e-07 2.639e-08 4.419e-08 4.115e-08 5.393e-08 1.458e-07 8.329e-08 1.222e-07 9.487e-08 9.078e-08 1.148e-07 7.337e-08 1.079e-07 6.613e-08 6.628e-08 4.557e-08 5.251e-08 7.037e-08 7.076e-09 1.740e-08 5.169e-09 5.467e-09 7.664e-09 6.847e-09 6.847e-09 6.847e-09 1.000e-02 9.033e-03 1.889e-03 9.618e-05 1.063e-05 9.992e-06 8.794e-06 8.650e-06 8.650e-06 8.650e-06 1.000e-02 1.633e-03 6.525e-04 5.486e-04 5.455e-04 2.608e-04 2.608e-04 2.608e-04 1.000e-02 4.368e-03 3.849e-03 3.812e-03 3.308e-03 3.303e-03 6.064e-04 3.303e-05 7.517e-07 4.189e-07 2.336e-07 2.417e-07 2.371e-07 2.429e-07 2.145e-07 1.722e-07 2.097e-07 1.823e-07 2.466e-07 7.792e-08 7.185e-08 4.937e-08 4.937e-08 4.937e-08 1.000e-02 8.538e-03 5.523e-03 3.856e-03 2.142e-04 1.929e-05 5.766e-06 2.025e-06 1.878e-06 1.229e-06 1.238e-06 1.667e-07 1.225e-07 3.904e-08 3.904e-08 3.904e-08 1.000e-02 2.009e-03 9.710e-04 5.970e-05 7.588e-06 1.945e-06 1.178e-06 9.786e-07 7.240e-07 6.654e-07 1.721e-07 9.989e-08 9.021e-08 1.172e-07 1.518e-07 1.662e-07 1.996e-07 2.053e-07 2.657e-07 7.142e-08 7.138e-08 6.548e-08 7.891e-08 7.286e-08 5.613e-08 5.522e-08 5.142e-08 1.280e-07 1.133e-07 1.578e-07 1.980e-07 5.970e-09 2.858e-08 8.181e-09 1.231e-07 1.236e-07 1.360e-07 6.617e-08 6.307e-08 2.504e-08 2.389e-08 1.446e-08 2.258e-08 1.458e-07 1.547e-07 1.469e-07 1.713e-07 6.076e-08 6.058e-08 3.323e-08 5.318e-08 5.318e-08 5.318e-08 1.000e-02 9.407e-03 7.635e-03 7.562e-03 7.543e-03 7.224e-03 7.044e-03 6.994e-03 4.399e-03 7.882e-04 7.105e-04 6.999e-04 4.406e-04 4.391e-04 5.743e-05 4.389e-05 3.934e-05 1.401e-05 1.019e-05 9.715e-07 8.347e-07 8.646e-07 8.796e-07 8.627e-07 8.464e-07 8.817e-07 5.629e-07 5.671e-07 4.310e-07 4.310e-07 4.114e-07 3.382e-07 3.382e-07 3.382e-07 1.000e-02 3.140e-03 9.266e-05 4.250e-06 7.304e-07 7.524e-07 3.193e-07 2.815e-07 1.351e-07 1.297e-07 1.285e-07 1.243e-07 1.243e-07 1.330e-07 1.292e-07 1.131e-07 1.908e-07 7.329e-08 6.042e-08 1.180e-07 2.420e-08 1.272e-08 1.272e-08 1.272e-08 1.000e-02 6.717e-03 6.678e-03 5.793e-03 4.887e-03 1.644e-03 1.540e-03 1.039e-03 2.251e-05 2.004e-05 1.930e-05 1.724e-05 1.474e-05 1.416e-05 4.336e-06 2.228e-06 4.735e-07 1.786e-07 1.857e-07 2.068e-07 2.304e-07 2.356e-07 1.928e-07 1.928e-07 1.928e-07 1.000e-02 2.640e-03 2.422e-03 2.203e-03 6.576e-04 9.417e-05 3.737e-07 9.834e-08 1.012e-07 5.921e-08 1.171e-07 1.409e-07 3.156e-08 2.089e-07 1.188e-07 1.536e-07 3.034e-07 3.174e-07 1.874e-07 4.311e-08 2.876e-08 1.040e-07 5.782e-08 7.289e-08 7.328e-08 7.426e-08 7.579e-08 6.050e-08 1.753e-07 1.441e-07 1.307e-07 1.530e-07 2.254e-07 2.303e-07 2.934e-07 2.994e-07 2.258e-07 2.268e-07 2.482e-07 3.129e-07 3.806e-08 1.009e-07 4.979e-08 7.007e-08 1.786e-08 2.251e-08 8.856e-08 9.745e-08 8.724e-08 1.550e-07 9.791e-08 8.483e-08 1.225e-07 7.400e-08 5.670e-08 5.670e-08 5.670e-08 1.000e-02 6.491e-03 1.723e-03 4.849e-04 4.230e-04 1.428e-04 4.052e-05 1.227e-05 1.217e-05 1.048e-05 3.455e-06 1.337e-06 8.370e-07 5.987e-07 6.186e-07 4.721e-07 3.498e-07 2.800e-07 1.482e-07 8.156e-08 8.836e-08 8.092e-08 6.714e-08 6.911e-08 6.911e-08 6.911e-08 1.000e-02 9.595e-03 1.150e-03 1.146e-03 1.132e-03 1.114e-03 1.096e-03 1.471e-04 1.765e-05 9.098e-06 9.071e-06 1.600e-06 1.596e-06 1.288e-06 5.826e-07 4.136e-07 4.932e-07 1.758e-07 1.160e-07 1.217e-07 2.221e-07 2.234e-07 2.114e-07 2.114e-07 2.114e-07 1.000e-02 6.716e-03 6.531e-03 6.518e-03 6.477e-03 6.449e-03 6.368e-03 5.231e-03 4.817e-03 3.268e-03 3.254e-03 3.248e-03 3.207e-03 3.165e-03 3.066e-03 2.423e-03 2.245e-03 9.338e-04 3.546e-04 3.254e-04 6.453e-05 3.141e-06 2.593e-06 1.609e-06 1.191e-06 1.047e-06 8.931e-07 1.858e-07 1.316e-07 1.720e-07 1.726e-07 1.523e-07 1.250e-07 4.487e-09 1.005e-08 3.072e-08 1.695e-08 1.784e-08 2.359e-08 5.830e-08 1.002e-07 1.808e-07 1.726e-07 6.829e-08 6.475e-08 7.689e-08 7.689e-08 7.689e-08 7.689e-08 1.000e-02 5.568e-03 4.573e-03 4.538e-03 9.109e-04 6.263e-04 5.895e-04 7.715e-05 8.851e-06 8.839e-06 8.769e-06 8.719e-06 8.636e-06 8.636e-06 8.636e-06 1.000e-02 9.647e-03 8.604e-03 9.139e-04 6.363e-04 3.901e-04 1.237e-04 2.309e-05 1.460e-05 4.576e-06 4.377e-06 4.340e-06 2.973e-06 2.381e-06 2.447e-06 1.100e-06 9.774e-07 3.373e-07 3.176e-07 3.379e-07 3.016e-07 2.795e-07 1.861e-07 5.201e-08 7.813e-08 6.314e-08 6.718e-08 6.980e-08 7.529e-08 8.181e-08 8.294e-08 6.364e-08 1.158e-07 1.172e-07 1.443e-07 6.316e-08 6.316e-08 6.316e-08 1.000e-02 9.655e-03 4.099e-03 3.258e-03 2.907e-03 2.874e-03 4.084e-04 6.051e-05 5.385e-05 9.063e-06 8.880e-07 3.998e-07 3.531e-07 2.446e-07 7.256e-08 4.603e-08 2.875e-08 1.707e-07 1.698e-07 9.892e-08 1.060e-07 1.120e-07 9.409e-08 9.615e-08 8.449e-08 8.449e-08 8.449e-08 1.000e-02 2.492e-03 1.965e-03 1.237e-03 5.639e-04 3.680e-04 1.245e-05 2.251e-06 2.282e-06 1.731e-06 1.411e-06 4.388e-07 4.245e-07 4.245e-07 4.245e-07 1.000e-02 8.936e-03 7.153e-03 6.338e-03 1.575e-03 1.427e-03 1.384e-03 1.500e-05 6.399e-06 6.125e-06 1.665e-06 2.554e-07 2.313e-07 9.672e-08 1.070e-07 1.439e-08 1.008e-08 1.003e-08 1.289e-08 8.153e-09 3.145e-09 1.015e-08 1.507e-08 3.795e-08 2.709e-08 4.336e-08 3.725e-08 2.107e-08 2.428e-08 4.564e-08 4.564e-08 4.564e-08 1.000e-02 9.033e-03 7.716e-03 1.129e-03 8.577e-04 5.185e-04 5.175e-04 4.210e-04 3.587e-04 1.002e-04 8.646e-05 8.590e-05 1.338e-05 7.867e-06 7.851e-06 1.907e-06 1.857e-06 1.839e-06 1.868e-06 1.800e-06 3.947e-07 2.286e-07 2.173e-07 5.260e-08 1.034e-08 1.477e-08 1.532e-08 7.083e-08 5.063e-08 9.114e-08 9.021e-08 9.527e-08 9.449e-08 1.011e-07 9.105e-08 4.467e-08 4.628e-08 5.034e-08 5.034e-08 5.034e-08 1.000e-02 8.371e-03 8.274e-03 7.160e-03 4.457e-03 4.237e-03 2.501e-03 2.284e-03 1.667e-03 1.567e-03 3.339e-04 3.315e-04 1.650e-04 8.388e-05 4.463e-05 1.226e-05 9.319e-06 3.074e-06 2.870e-06 2.881e-06 2.503e-06 1.922e-06 1.499e-06 1.133e-06 1.030e-06 2.365e-07 1.698e-07 1.736e-07 1.316e-07 5.640e-08 4.255e-08 4.447e-08 6.791e-08 4.451e-08 3.280e-08 3.312e-08 9.002e-09 8.086e-09 7.088e-08 4.729e-08 4.420e-08 4.420e-08 4.420e-08 1.000e-02 5.818e-03 3.302e-03 3.132e-03 2.729e-03 2.704e-03 2.321e-03 2.098e-03 1.216e-03 1.123e-03 2.108e-04 2.083e-04 2.076e-04 1.367e-04 1.352e-04 1.341e-04 1.319e-04 1.104e-04 9.290e-05 8.458e-05 5.064e-05 4.863e-05 3.185e-05 2.421e-06 1.089e-06 5.037e-07 4.088e-07 4.088e-07 4.088e-07 1.000e-02 9.460e-03 6.197e-03 6.156e-03 2.219e-03 1.447e-03 1.253e-03 4.576e-04 4.119e-04 5.634e-05 2.540e-05 2.057e-05 1.764e-05 2.776e-06 1.605e-06 1.340e-06 1.007e-06 6.850e-07 4.589e-07 3.711e-07 3.606e-07 3.594e-07 3.537e-07 3.160e-07 6.130e-08 1.959e-07 1.959e-07 1.959e-07 1.000e-02 2.471e-04 8.310e-05 7.091e-05 6.024e-05 1.643e-05 1.369e-05 1.363e-05 1.700e-06 1.177e-06 4.580e-07 3.647e-07 3.749e-07 3.749e-07 3.749e-07 1.000e-02 3.720e-03 3.632e-03 3.615e-03 3.461e-03 1.120e-03 3.796e-04 7.463e-05 5.638e-05 2.583e-05 6.306e-07 4.201e-07 4.042e-07 1.039e-07 4.821e-08 7.081e-08 3.170e-09 9.033e-08 8.436e-08 7.719e-08 9.501e-08 3.576e-08 4.421e-08 1.629e-07 2.552e-07 1.876e-07 1.967e-07 1.912e-07 1.918e-07 1.918e-07 1.853e-07 1.909e-07 1.909e-07 1.909e-07 1.000e-02 3.506e-03 1.354e-03 8.139e-04 4.519e-05 2.550e-06 1.516e-06 1.166e-06 8.452e-07 6.427e-07 2.668e-07 6.033e-08 6.748e-08 3.882e-08 2.945e-08 5.182e-08 5.253e-08 8.937e-08 6.152e-08 9.026e-08 7.275e-08 4.971e-08 6.818e-08 6.390e-08 2.515e-08 3.121e-08 3.943e-08 7.647e-08 7.998e-08 1.202e-08 1.020e-08 6.182e-09 2.155e-08 2.155e-08 2.155e-08 1.000e-02 9.268e-03 5.550e-03 2.293e-04 4.079e-05 1.280e-05 1.095e-06 8.870e-07 1.167e-07 6.698e-08 6.639e-08 8.290e-08 7.128e-08 6.553e-08 7.275e-08 2.404e-07 3.177e-08 3.461e-08 3.073e-08 2.842e-08 2.041e-08 2.420e-08 2.750e-08 2.185e-08 1.921e-08 1.673e-08 3.443e-08 4.831e-08 7.533e-08 2.064e-07 5.569e-08 5.942e-08 9.149e-08 2.186e-07 2.311e-07 1.601e-07 2.122e-07 2.331e-07 2.278e-07 2.345e-07 8.000e-08 6.417e-08 3.405e-08 5.564e-08 3.963e-08 4.750e-08 5.047e-08 3.929e-08 2.975e-08 2.975e-08 2.975e-08 1.000e-02 6.094e-03 4.751e-03 4.679e-03 2.003e-03 1.293e-03 8.161e-04 8.156e-04 6.689e-04 6.618e-04 6.580e-04 4.810e-05 1.315e-05 1.238e-05 5.381e-06 4.228e-06 2.564e-06 1.251e-06 1.144e-06 9.429e-07 9.252e-07 3.356e-07 1.908e-07 1.203e-07 1.122e-07 1.145e-07 1.359e-07 1.402e-07 1.134e-07 3.334e-07 2.992e-07 1.057e-07 1.027e-07 1.106e-07 1.217e-07 1.217e-07 1.217e-07 1.000e-02 7.531e-03 3.772e-03 3.601e-03 3.545e-03 3.454e-03 1.865e-03 5.147e-04 4.530e-04 1.332e-04 1.069e-04 1.054e-04 4.485e-06 2.420e-06 1.669e-06 1.597e-06 1.620e-06 1.351e-06 1.082e-06 1.028e-06 9.602e-08 1.407e-07 2.722e-08 2.282e-08 3.488e-08 4.999e-08 8.170e-08 6.561e-08 1.092e-07 1.080e-07 4.154e-08 2.835e-08 8.874e-08 8.408e-08 7.112e-08 7.500e-08 4.782e-08 2.455e-08 9.019e-09 7.119e-08 7.115e-09 2.440e-08 4.103e-08 4.161e-08 4.161e-08 4.161e-08 1.000e-02 4.854e-03 3.244e-03 4.783e-04 2.312e-05 1.130e-06 1.147e-06 7.808e-07 2.716e-07 2.537e-07 2.601e-07 1.977e-07 5.416e-08 1.301e-07 1.056e-07 4.021e-09 1.232e-07 7.784e-08 7.784e-08 7.784e-08 1.000e-02 1.829e-03 3.403e-04 3.356e-04 3.322e-04 3.292e-04 2.764e-04 7.988e-05 7.972e-05 3.075e-05 6.413e-06 2.412e-06 2.381e-06 1.707e-06 1.378e-07 1.343e-07 1.915e-07 1.619e-07 1.491e-07 1.639e-07 1.977e-07 1.359e-07 7.413e-08 7.641e-08 1.211e-07 9.820e-09 2.499e-08 2.871e-08 1.261e-07 8.269e-08 8.269e-08 8.269e-08 1.000e-02 9.153e-03 9.128e-03 4.020e-03 3.700e-03 2.788e-03 2.744e-03 2.142e-03 2.197e-04 2.183e-04 1.799e-04 1.470e-06 1.274e-06 2.257e-07 3.695e-08 3.625e-08 3.625e-08 3.625e-08 1.000e-02 8.765e-03 6.073e-03 5.015e-03 1.737e-03 9.473e-04 7.501e-04 7.131e-05 2.392e-05 2.109e-05 2.081e-05 2.078e-05 2.064e-05 2.033e-05 2.033e-05 2.033e-05 1.000e-02 8.034e-04 4.844e-04 4.176e-04 2.629e-04 1.991e-04 1.016e-04 6.345e-05 5.668e-05 5.668e-05 5.668e-05 1.000e-02 3.628e-03 1.236e-03 1.064e-03 3.904e-05 3.895e-05 3.878e-05 3.851e-05 3.309e-05 3.281e-05 3.272e-05 3.182e-05 1.972e-05 1.679e-05 1.336e-05 1.090e-05 3.892e-07 1.670e-07 1.005e-07 1.134e-07 1.125e-07 3.056e-08 1.117e-07 9.977e-08 8.287e-08 9.424e-08 1.044e-07 8.913e-09 1.001e-08 2.911e-08 2.536e-08 4.838e-08 6.897e-08 3.288e-08 2.823e-08 2.172e-08 1.599e-08 1.599e-08 1.599e-08 1.000e-02 9.925e-03 8.684e-03 7.486e-03 7.142e-03 3.344e-03 1.031e-03 1.003e-03 9.369e-04 4.420e-04 4.420e-04 4.420e-04 1.000e-02 9.029e-03 2.391e-03 1.944e-03 1.896e-03 1.884e-03 1.862e-03 8.828e-04 8.745e-04 8.669e-04 7.414e-04 6.976e-04 6.875e-04 3.866e-04 3.116e-04 1.049e-04 4.653e-05 2.058e-05 1.475e-05 1.463e-05 7.944e-06 7.334e-06 4.763e-06 4.191e-06 1.605e-06 2.481e-07 2.309e-07 7.456e-08 1.027e-07 1.040e-07 4.572e-08 2.996e-08 1.399e-08 3.077e-08 4.285e-08 1.047e-07 9.489e-08 2.212e-07 2.047e-07 9.971e-08 3.123e-08 3.415e-08 3.295e-08 5.872e-08 7.360e-08 3.602e-08 3.181e-08 7.047e-08 4.536e-08 5.151e-08 4.187e-08 4.939e-08 1.010e-07 2.060e-07 2.024e-07 1.879e-07 1.879e-07 1.879e-07 1.000e-02 9.410e-03 1.919e-03 7.772e-04 7.297e-04 3.154e-04 1.992e-04 8.709e-05 8.171e-05 8.126e-05 7.474e-05 5.271e-05 5.176e-05 6.393e-06 6.393e-06 6.393e-06 1.000e-02 9.937e-03 5.564e-03 3.907e-03 2.067e-03 2.046e-03 2.029e-03 1.702e-04 6.647e-05 2.589e-05 1.369e-05 4.555e-06 2.958e-07 3.681e-07 3.681e-07 3.681e-07 1.000e-02 9.946e-03 9.830e-03 9.667e-03 9.624e-03 9.595e-03 8.598e-03 3.737e-03 3.510e-03 1.663e-03 6.951e-04 6.049e-04 2.338e-04 2.013e-04 1.944e-04 5.271e-06 2.412e-06 2.307e-06 2.280e-06 2.210e-06 2.606e-07 2.268e-07 2.394e-07 2.394e-07 2.394e-07 1.000e-02 9.002e-03 7.974e-03 5.959e-03 2.251e-04 1.464e-04 1.452e-04 1.274e-04 1.266e-04 1.047e-04 7.892e-05 4.144e-05 3.316e-05 3.253e-06 3.142e-07 1.859e-07 3.273e-08 1.648e-08 7.957e-08 1.373e-07 1.222e-07 9.698e-08 1.165e-07 3.128e-08 2.674e-09 1.108e-09 7.052e-09 2.086e-08 1.460e-08 2.415e-08 2.149e-08 4.927e-08 3.956e-08 8.273e-08 8.273e-08 8.611e-08 1.614e-07 6.510e-08 6.076e-08 1.056e-07 1.390e-07 1.390e-07 1.942e-07 1.942e-07 1.942e-07 1.000e-02 4.560e-03 7.274e-04 4.837e-04 3.047e-04 2.363e-04 6.951e-05 4.908e-05 4.873e-05 4.800e-05 4.788e-05 4.528e-05 4.009e-05 3.951e-05 3.922e-05 3.911e-05 3.896e-05 1.732e-05 1.202e-05 7.126e-06 7.048e-06 5.597e-06 7.932e-07 6.250e-07 5.242e-07 5.313e-07 5.041e-07 4.091e-07 4.244e-07 4.079e-07 1.120e-07 1.053e-07 1.047e-07 1.057e-07 7.205e-08 8.564e-08 8.480e-08 6.739e-08 3.681e-08 2.130e-07 1.816e-07 1.388e-07 3.522e-08 6.766e-08 6.696e-08 1.229e-07 4.436e-09 1.091e-08 1.046e-07 1.079e-07 1.536e-07 9.996e-08 3.414e-08 6.680e-08 4.237e-08 2.953e-08 1.108e-07 1.006e-07 4.970e-08 9.045e-08 1.053e-07 7.190e-08 6.978e-08 1.472e-08 1.603e-07 1.497e-07 1.863e-07 1.710e-07 2.479e-07 6.809e-08 4.628e-08 6.733e-08 9.457e-08 4.796e-08 5.631e-08 1.254e-07 1.106e-07 1.200e-07 7.777e-08 3.457e-08 1.221e-07 3.229e-08 3.311e-08 4.108e-08 4.070e-08 4.678e-08 4.368e-08 3.673e-08 3.839e-08 3.746e-08 3.746e-08 3.746e-08 1.000e-02 8.901e-03 7.296e-03 1.949e-03 2.616e-04 2.357e-04 5.174e-05 3.442e-05 3.084e-05 1.745e-05 1.247e-05 1.047e-06 6.621e-07 5.175e-07 5.175e-07 5.175e-07 1.000e-02 9.871e-03 9.803e-03 4.854e-04 4.407e-04 1.602e-04 1.423e-04 1.116e-04 1.406e-07 1.597e-07 1.474e-07 2.426e-07 1.128e-07 1.574e-07 1.280e-07 1.104e-07 1.280e-07 1.280e-07 1.280e-07 1.000e-02 9.928e-03 7.466e-03 3.628e-03 3.628e-03 1.568e-03 4.535e-04 4.059e-04 3.969e-04 3.925e-04 3.805e-04 3.805e-04 3.805e-04 1.000e-02 5.947e-04 2.258e-05 6.829e-06 6.849e-07 4.868e-07 2.846e-07 7.553e-09 8.430e-08 5.953e-08 7.011e-08 5.188e-08 5.418e-08 1.046e-07 6.495e-08 1.214e-07 1.323e-07 1.357e-07 1.211e-07 1.108e-07 9.645e-08 9.645e-08 8.472e-09 3.850e-09 1.233e-07 8.858e-08 8.858e-08 8.858e-08 1.000e-02 2.337e-03 1.938e-03 7.776e-05 7.735e-05 6.212e-05 5.215e-05 5.196e-05 5.141e-05 1.497e-05 1.266e-05 1.455e-06 1.283e-06 1.004e-06 5.821e-07 9.970e-08 1.080e-07 1.070e-07 1.637e-07 7.234e-08 2.373e-08 2.365e-08 4.892e-08 7.136e-08 9.054e-08 8.140e-09 9.425e-09 9.041e-08 6.191e-08 7.611e-08 1.402e-07 8.486e-08 6.669e-08 1.103e-08 1.047e-08 1.580e-08 7.722e-09 4.249e-08 8.489e-08 8.586e-08 8.074e-08 4.826e-08 4.351e-08 3.964e-08 1.071e-07 1.035e-07 1.374e-07 6.665e-08 6.797e-08 5.722e-08 5.722e-08 5.722e-08 1.000e-02 5.708e-03 8.430e-04 8.350e-04 7.531e-04 5.770e-04 5.208e-04 4.379e-04 4.183e-04 2.423e-05 1.121e-05 3.647e-07 1.528e-07 7.482e-08 8.675e-08 5.655e-08 1.025e-07 9.028e-08 5.975e-08 5.188e-08 4.842e-08 4.308e-08 4.751e-08 1.083e-07 7.958e-08 1.125e-07 1.200e-07 1.100e-07 1.272e-07 1.253e-07 1.285e-07 1.290e-07 1.258e-07 1.545e-07 2.398e-08 3.018e-08 2.304e-08 2.647e-08 1.763e-08 1.420e-08 1.452e-08 1.462e-08 3.582e-08 9.057e-08 8.350e-08 1.231e-08 3.784e-08 4.434e-08 1.788e-08 1.984e-07 5.877e-08 4.935e-08 5.952e-08 4.410e-08 2.805e-07 1.009e-07 3.146e-08 8.329e-08 7.708e-08 1.140e-07 1.959e-08 8.184e-08 4.007e-08 3.730e-08 6.128e-09 3.052e-08 5.674e-08 5.422e-08 4.635e-08 4.635e-08 4.635e-08 1.000e-02 4.834e-03 4.217e-03 4.177e-03 4.139e-03 4.130e-03 3.718e-03 3.301e-03 1.951e-03 3.093e-04 1.464e-04 8.272e-07 5.731e-07 3.074e-07 2.266e-07 6.416e-08 1.208e-07 1.285e-07 1.025e-07 5.025e-08 6.395e-08 6.130e-08 8.802e-10 5.881e-09 1.932e-07 2.557e-07 2.673e-07 2.488e-07 3.134e-07 2.839e-07 1.118e-07 9.838e-08 8.353e-08 6.754e-08 1.338e-07 3.801e-08 4.323e-08 4.323e-08 4.323e-08 1.000e-02 9.504e-04 2.664e-04 2.664e-04 2.662e-04 2.656e-04 2.159e-04 2.132e-04 2.115e-04 2.096e-04 2.074e-04 8.198e-05 4.308e-07 4.444e-07 4.605e-07 3.893e-07 4.173e-07 3.417e-07 3.052e-07 2.975e-07 3.050e-07 1.629e-07 3.480e-08 3.961e-08 3.693e-08 1.105e-07 1.017e-07 1.489e-07 5.171e-08 3.233e-08 7.288e-08 2.405e-07 2.473e-07 2.331e-07 1.096e-07 4.986e-08 1.339e-08 1.560e-08 4.029e-08 3.287e-08 1.401e-07 1.178e-07 1.124e-07 1.342e-07 8.865e-08 8.401e-08 3.586e-08 2.587e-08 2.466e-08 2.790e-08 2.081e-08 5.881e-08 3.280e-08 8.436e-08 5.956e-08 6.418e-08 1.313e-07 1.424e-07 6.550e-08 6.550e-08 6.550e-08 1.000e-02 4.557e-03 3.885e-03 6.526e-04 1.756e-04 1.712e-04 1.692e-04 7.614e-05 6.326e-05 2.899e-05 9.967e-06 4.424e-06 3.751e-06 3.728e-06 3.010e-06 1.690e-07 8.971e-08 7.688e-08 8.213e-08 1.031e-07 1.371e-07 8.992e-08 1.189e-07 1.189e-07 1.189e-07 1.000e-02 2.676e-03 1.014e-03 9.989e-04 9.906e-04 9.759e-04 7.593e-04 7.588e-04 7.568e-04 7.299e-04 1.671e-04 1.500e-04 5.759e-05 1.316e-05 6.579e-06 1.007e-06 3.596e-07 3.596e-07 3.596e-07 1.000e-02 8.448e-03 5.030e-03 4.458e-03 3.413e-03 3.211e-03 7.973e-04 2.627e-04 9.574e-05 4.323e-05 4.099e-05 7.505e-06 2.219e-06 2.220e-06 1.929e-06 6.261e-07 3.917e-07 4.064e-07 4.028e-07 4.080e-07 3.351e-07 3.314e-07 3.319e-07 1.475e-07 5.794e-08 6.226e-08 1.090e-07 1.237e-07 7.446e-08 4.055e-08 4.055e-08 4.055e-08 1.000e-02 9.973e-03 9.195e-03 9.134e-03 2.428e-03 2.408e-03 2.403e-03 2.384e-03 2.116e-03 7.503e-05 1.210e-05 1.187e-05 4.015e-06 9.116e-08 8.865e-08 9.892e-08 1.379e-07 2.686e-08 3.146e-08 5.543e-08 4.717e-08 5.188e-08 6.525e-08 2.533e-08 6.829e-08 1.076e-07 2.669e-07 2.383e-07 6.119e-08 6.119e-08 6.119e-08 1.000e-02 3.551e-03 1.339e-03 2.624e-04 2.224e-04 1.126e-04 1.030e-04 1.024e-04 1.010e-04 3.870e-05 2.330e-05 2.214e-06 2.067e-06 2.054e-06 9.367e-07 6.583e-07 5.149e-07 1.809e-07 1.874e-07 1.874e-07 1.874e-07 1.000e-02 8.613e-03 2.129e-03 5.501e-04 1.099e-04 3.956e-05 3.923e-05 1.079e-05 1.068e-05 9.165e-06 5.080e-06 3.396e-06 1.585e-06 1.597e-06 9.401e-07 6.336e-07 2.836e-07 2.736e-07 1.984e-07 1.423e-07 2.262e-07 2.326e-08 2.892e-08 4.239e-08 9.186e-08 1.744e-07 2.401e-07 1.718e-07 8.775e-08 1.075e-07 1.048e-07 1.187e-07 1.207e-07 1.058e-07 7.208e-08 7.394e-08 7.219e-08 7.219e-08 7.219e-08 1.000e-02 9.391e-03 9.279e-03 6.886e-03 7.590e-04 1.311e-04 6.724e-05 1.630e-05 6.543e-06 3.488e-06 3.053e-06 2.039e-06 2.002e-06 1.933e-06 1.860e-06 5.062e-07 3.223e-07 1.897e-07 6.522e-08 5.648e-08 5.401e-08 6.837e-08 6.058e-08 5.682e-08 6.364e-08 6.364e-08 2.863e-08 2.857e-08 3.091e-08 3.481e-08 3.481e-08 3.481e-08 1.000e-02 2.857e-03 2.487e-03 5.400e-04 3.134e-04 2.811e-04 2.151e-04 1.283e-04 1.934e-05 5.072e-06 4.795e-06 4.219e-06 4.150e-06 3.065e-06 1.357e-06 2.177e-07 2.200e-07 6.291e-08 4.965e-08 4.965e-08 4.965e-08 1.000e-02 9.889e-03 8.534e-03 6.386e-03 5.849e-03 5.758e-03 5.667e-03 4.689e-03 1.450e-03 1.032e-03 2.932e-04 3.460e-05 9.341e-06 7.378e-06 1.797e-06 6.849e-07 7.789e-07 1.682e-07 1.625e-07 1.625e-07 1.625e-07 1.000e-02 7.805e-03 7.407e-03 1.980e-03 2.423e-04 1.033e-04 4.856e-05 3.631e-05 3.584e-05 1.125e-05 8.758e-06 4.409e-06 3.074e-06 2.716e-06 1.753e-06 1.736e-06 1.509e-06 1.474e-06 1.137e-06 4.447e-07 8.566e-08 1.170e-07 1.225e-07 4.810e-08 7.516e-08 6.918e-08 7.678e-08 7.678e-08 7.678e-08 1.000e-02 3.301e-03 3.287e-03 5.542e-04 5.530e-04 5.497e-04 5.476e-04 1.730e-04 5.602e-05 3.665e-06 2.864e-06 2.642e-06 7.954e-07 1.945e-07 9.607e-08 7.916e-08 7.304e-08 2.643e-08 6.616e-08 7.228e-08 5.724e-08 2.191e-08 2.837e-08 1.021e-08 1.352e-08 2.637e-09 3.928e-09 2.784e-09 1.945e-07 4.898e-08 6.292e-08 7.061e-08 4.891e-08 2.149e-08 1.847e-08 1.428e-07 2.946e-07 2.698e-07 2.677e-07 1.990e-07 1.566e-07 6.372e-08 4.632e-08 3.770e-08 3.975e-08 1.023e-07 6.632e-08 7.681e-08 1.861e-08 9.926e-09 1.489e-08 9.864e-09 1.750e-08 1.750e-08 1.750e-08 1.750e-08 1.000e-02 3.743e-03 1.057e-03 8.715e-04 8.605e-04 6.660e-04 3.203e-04 1.862e-04 5.350e-05 4.019e-05 3.571e-05 1.232e-05 1.214e-05 7.774e-06 3.212e-06 2.565e-06 2.268e-06 2.083e-06 2.119e-06 2.105e-06 2.012e-06 2.012e-06 2.012e-06 1.000e-02 5.973e-04 1.399e-04 7.946e-05 5.147e-05 4.649e-05 4.176e-05 4.107e-05 4.064e-05 3.288e-05 1.025e-05 9.855e-07 2.844e-07 2.394e-07 2.327e-07 2.327e-07 2.327e-07 1.000e-02 7.969e-03 1.812e-03 3.680e-05 2.482e-05 1.064e-05 8.402e-06 3.874e-07 3.979e-07 2.532e-07 2.452e-07 1.955e-07 1.163e-07 1.176e-07 2.000e-08 6.729e-08 1.665e-07 3.531e-08 1.891e-08 9.189e-09 1.117e-08 2.163e-09 1.320e-08 1.403e-08 4.836e-08 1.044e-07 8.888e-08 6.871e-08 1.291e-07 4.987e-08 1.616e-08 2.105e-08 4.675e-08 7.414e-08 1.194e-07 1.625e-07 1.637e-07 1.603e-07 1.138e-07 1.326e-07 8.549e-08 1.321e-07 2.058e-07 8.125e-08 1.663e-07 1.086e-07 1.200e-07 1.402e-07 1.325e-07 1.371e-07 9.845e-08 1.572e-07 1.663e-07 1.205e-08 1.812e-08 9.676e-09 1.578e-07 1.481e-07 1.481e-07 1.481e-07 1.000e-02 4.250e-03 4.194e-04 3.213e-04 4.453e-05 1.637e-05 1.599e-05 2.490e-06 1.549e-06 2.194e-07 3.022e-07 2.067e-07 1.342e-07 1.988e-07 1.011e-07 1.121e-07 3.679e-08 8.751e-08 7.412e-08 7.412e-08 7.412e-08 1.000e-02 9.930e-03 9.901e-03 2.200e-03 9.684e-04 3.970e-04 2.955e-04 2.638e-04 2.571e-04 2.561e-04 1.913e-04 1.228e-04 1.139e-04 3.134e-05 1.849e-05 7.133e-06 6.190e-07 6.046e-07 5.952e-07 6.176e-07 6.176e-07 6.095e-07 6.348e-07 7.924e-07 7.901e-07 5.265e-07 2.085e-07 2.085e-07 2.085e-07 1.000e-02 9.813e-03 6.855e-03 5.618e-03 4.620e-03 4.357e-03 1.458e-03 5.892e-05 2.198e-06 5.563e-07 9.715e-08 1.022e-07 3.247e-07 1.344e-07 1.344e-07 1.344e-07 1.000e-02 5.146e-03 5.063e-03 4.395e-03 1.246e-03 3.646e-04 1.508e-04 8.201e-05 4.194e-05 4.194e-05 4.194e-05 1.000e-02 7.696e-03 3.373e-03 7.549e-04 5.652e-04 5.272e-04 3.030e-04 1.627e-04 7.558e-05 1.346e-05 1.335e-05 1.328e-05 1.307e-05 1.245e-05 1.138e-05 1.051e-05 1.041e-05 4.923e-06 1.223e-06 1.060e-06 6.446e-07 1.059e-07 1.059e-07 1.059e-07 1.000e-02 9.339e-03 3.297e-03 1.020e-03 8.796e-04 4.587e-04 1.805e-04 1.521e-04 1.436e-04 1.224e-04 6.626e-05 6.526e-05 6.526e-05 6.526e-05 1.000e-02 7.575e-03 1.993e-03 1.635e-03 1.210e-03 8.804e-05 6.530e-05 6.384e-05 3.084e-05 1.142e-05 5.411e-06 5.247e-06 4.400e-06 3.186e-06 3.183e-06 3.123e-06 3.113e-06 3.019e-06 2.782e-06 3.143e-07 4.637e-08 8.177e-08 8.621e-08 8.906e-08 6.704e-08 5.553e-08 6.003e-08 6.003e-08 6.003e-08 1.000e-02 8.049e-03 8.188e-04 7.499e-04 2.179e-04 3.540e-05 5.090e-07 5.607e-07 3.504e-07 1.368e-07 1.396e-07 1.461e-07 1.458e-07 2.612e-07 2.092e-07 1.668e-07 5.218e-08 2.249e-07 1.698e-07 1.936e-07 1.661e-07 1.589e-07 6.107e-08 4.198e-08 9.891e-09 1.171e-08 1.032e-08 5.691e-08 5.691e-08 5.691e-08 1.000e-02 8.465e-03 4.340e-03 1.200e-04 9.027e-06 1.475e-06 1.686e-07 8.652e-08 8.849e-08 1.058e-07 1.118e-07 5.801e-08 1.056e-08 2.950e-08 2.758e-08 3.426e-08 3.790e-08 1.248e-07 8.214e-08 1.927e-08 2.321e-08 2.321e-08 2.321e-08 1.000e-02 5.677e-03 4.650e-03 4.435e-03 3.488e-03 3.942e-04 1.503e-04 1.463e-04 1.016e-04 5.241e-05 5.185e-05 5.103e-05 3.733e-06 3.063e-06 2.411e-06 1.310e-06 2.857e-07 1.682e-07 1.260e-07 1.249e-07 1.185e-07 4.122e-08 1.514e-08 2.542e-08 4.336e-08 3.990e-08 4.833e-08 4.941e-08 9.023e-08 8.826e-08 1.059e-09 1.561e-08 9.387e-08 3.730e-09 3.730e-09 3.730e-09 1.000e-02 4.470e-03 3.852e-03 8.605e-04 6.879e-04 2.130e-04 5.837e-05 5.371e-05 3.472e-05 2.640e-05 2.618e-05 2.590e-05 2.538e-05 2.442e-05 1.693e-05 6.117e-06 3.187e-06 1.765e-07 1.018e-07 5.942e-08 1.172e-07 7.899e-08 1.368e-07 2.096e-07 2.096e-07 2.096e-07 1.000e-02 2.974e-03 2.957e-03 2.408e-04 2.368e-04 2.334e-04 2.305e-04 1.270e-04 6.542e-05 5.037e-06 4.829e-06 4.363e-06 3.636e-06 3.636e-06 3.636e-06 1.000e-02 5.302e-03 4.768e-03 1.428e-03 1.426e-03 6.003e-04 3.510e-04 3.243e-04 3.185e-04 2.944e-04 2.929e-04 2.881e-04 1.689e-04 1.666e-04 1.624e-04 1.599e-04 1.591e-04 7.742e-05 7.299e-05 6.615e-05 6.612e-05 6.612e-05 6.612e-05 1.000e-02 1.323e-04 1.240e-04 1.231e-04 1.542e-05 1.435e-05 1.435e-05 1.435e-05 1.000e-02 2.314e-03 1.900e-03 1.359e-03 8.401e-04 8.547e-05 4.642e-05 4.617e-05 4.573e-05 3.418e-05 2.374e-05 1.593e-07 1.521e-07 5.248e-08 3.928e-08 3.362e-08 2.450e-08 4.256e-08 2.304e-08 4.841e-08 3.708e-08 2.100e-08 8.292e-08 7.385e-08 8.177e-08 4.453e-08 4.600e-08 3.660e-08 2.632e-08 2.349e-08 6.381e-08 2.337e-07 2.220e-07 2.509e-07 2.665e-07 2.718e-07 3.454e-08 3.178e-08 3.993e-08 8.638e-08 1.144e-07 1.124e-07 8.363e-08 8.001e-08 9.355e-08 9.376e-08 1.062e-07 3.252e-08 4.941e-08 4.941e-08 4.941e-08 1.000e-02 1.172e-03 3.713e-04 3.036e-04 2.980e-05 3.219e-06 3.001e-06 1.331e-06 2.521e-07 3.326e-07 6.352e-08 6.918e-08 6.115e-08 1.426e-07 1.859e-07 2.701e-08 2.701e-08 2.701e-08 1.000e-02 3.302e-03 2.092e-03 1.897e-03 5.157e-05 2.312e-05 1.427e-05 1.354e-05 9.414e-06 7.736e-06 7.644e-06 2.259e-06 6.303e-07 5.800e-07 1.196e-07 8.692e-08 9.752e-08 2.471e-08 7.434e-08 7.322e-08 9.093e-08 1.458e-07 7.236e-08 4.596e-08 5.790e-08 1.594e-07 1.726e-07 1.546e-07 7.838e-08 3.065e-07 3.050e-07 3.072e-07 3.121e-07 3.121e-07 3.121e-07 1.000e-02 2.010e-03 1.588e-03 9.381e-04 1.153e-04 1.138e-04 9.491e-05 6.089e-05 4.720e-05 4.708e-05 4.612e-05 4.043e-05 2.922e-06 1.569e-06 7.773e-07 9.337e-08 1.196e-07 1.179e-07 6.251e-08 1.991e-08 1.477e-08 1.294e-08 1.192e-08 1.176e-08 9.648e-09 2.886e-08 8.239e-09 7.952e-08 3.955e-08 3.159e-08 4.062e-08 4.281e-08 4.783e-08 4.743e-08 1.854e-07 1.893e-07 1.165e-07 5.957e-08 1.414e-07 1.019e-07 1.085e-07 1.312e-07 1.105e-07 4.487e-08 5.700e-08 6.052e-08 6.029e-08 2.476e-08 2.476e-08 2.476e-08 1.000e-02 2.051e-03 1.110e-04 3.296e-05 2.164e-05 2.139e-05 2.132e-05 2.132e-05 2.132e-05 1.000e-02 3.376e-03 3.554e-04 1.657e-04 1.069e-05 2.000e-06 8.876e-07 7.908e-07 8.434e-07 5.673e-07 3.772e-07 3.552e-07 3.471e-07 8.664e-08 9.729e-08 1.003e-07 5.432e-08 4.642e-08 7.389e-08 1.280e-07 1.280e-07 1.280e-07 1.000e-02 1.323e-03 1.067e-03 6.838e-04 6.488e-04 4.955e-04 2.348e-04 7.974e-05 7.895e-05 7.808e-05 3.147e-05 2.441e-05 1.655e-05 5.901e-06 5.803e-06 5.734e-06 1.262e-06 1.310e-06 1.297e-06 1.310e-06 1.214e-06 1.208e-06 1.217e-06 2.179e-07 1.398e-07 5.881e-08 5.293e-08 5.111e-08 4.717e-08 4.687e-08 4.508e-08 1.636e-07 1.090e-07 7.778e-08 7.009e-08 7.650e-08 7.193e-08 9.097e-08 9.398e-08 3.183e-07 3.183e-07 3.183e-07 1.000e-02 7.249e-03 6.016e-03 4.190e-03 4.062e-03 4.007e-03 2.242e-03 2.338e-04 2.330e-04 2.314e-04 1.804e-04 1.777e-04 1.002e-05 9.539e-06 9.539e-06 9.539e-06 1.000e-02 7.845e-03 7.789e-03 7.555e-03 4.874e-05 1.241e-05 4.111e-06 1.792e-06 3.933e-07 2.509e-07 1.671e-07 1.748e-07 1.119e-07 2.219e-07 2.144e-07 9.933e-08 1.908e-07 2.076e-07 9.334e-08 4.289e-08 3.682e-08 3.369e-08 3.787e-08 3.943e-08 4.425e-08 6.216e-08 4.924e-08 5.837e-08 5.795e-08 6.765e-08 6.860e-08 1.409e-07 1.297e-07 1.297e-07 1.081e-07 1.081e-07 1.081e-07 1.000e-02 7.336e-03 6.934e-03 6.738e-03 4.625e-03 7.095e-04 4.127e-04 3.493e-04 3.461e-04 2.645e-04 3.415e-05 1.892e-05 9.335e-06 6.514e-07 4.931e-07 1.349e-07 1.856e-07 2.029e-07 4.060e-07 2.803e-07 2.855e-07 2.725e-07 7.269e-08 6.127e-08 1.236e-07 1.381e-07 1.255e-07 1.144e-07 2.025e-07 1.059e-07 1.323e-07 1.131e-07 1.040e-07 4.054e-08 1.504e-08 1.504e-08 1.504e-08 1.000e-02 9.655e-03 4.981e-03 1.246e-04 1.140e-04 5.214e-05 5.214e-05 5.214e-05 1.000e-02 1.467e-03 9.595e-04 7.458e-04 6.393e-04 4.235e-05 3.652e-05 2.303e-05 1.956e-05 1.147e-05 9.351e-06 9.401e-07 8.221e-07 8.305e-07 1.115e-07 1.071e-07 1.862e-07 7.932e-08 7.734e-08 2.079e-07 1.811e-09 3.905e-08 3.752e-08 3.908e-08 3.346e-08 3.663e-08 3.034e-08 4.361e-08 3.882e-08 9.705e-08 6.439e-08 4.158e-08 4.832e-08 4.732e-08 3.171e-08 6.232e-08 7.975e-08 1.065e-07 1.244e-07 1.574e-07 1.602e-07 7.437e-08 9.979e-08 8.883e-08 4.409e-08 8.958e-08 1.351e-07 2.072e-07 3.502e-08 1.572e-08 1.512e-08 2.541e-08 8.228e-08 9.492e-08 4.806e-08 5.640e-08 1.390e-07 7.876e-08 1.316e-07 1.311e-07 1.347e-07 1.103e-07 7.162e-08 6.651e-08 5.404e-08 5.009e-08 1.342e-07 1.264e-07 4.616e-08 1.818e-08 1.185e-08 6.869e-08 6.349e-08 1.077e-07 8.341e-08 1.066e-07 1.328e-07 1.311e-07 1.311e-07 1.311e-07 1.000e-02 9.523e-03 9.439e-03 8.010e-03 3.028e-03 7.577e-06 6.802e-06 4.603e-06 4.821e-07 3.683e-07 3.780e-07 3.903e-07 2.948e-07 2.026e-07 8.802e-08 9.065e-08 9.916e-08 1.800e-07 9.078e-08 9.262e-08 7.865e-08 8.360e-08 4.720e-08 4.638e-08 6.940e-08 6.637e-08 9.958e-08 4.940e-08 1.530e-07 1.529e-07 1.671e-07 1.062e-07 8.071e-08 5.443e-08 1.462e-07 1.508e-07 1.770e-07 1.079e-07 1.537e-07 5.629e-08 5.855e-08 5.855e-08 5.855e-08 1.000e-02 9.019e-03 8.234e-03 8.153e-03 8.120e-03 3.484e-03 2.173e-03 1.195e-04 1.053e-04 5.404e-05 5.355e-05 4.537e-05 2.779e-05 1.600e-05 1.494e-05 1.882e-06 1.896e-06 5.656e-07 5.378e-08 3.996e-08 6.654e-08 3.455e-08 8.957e-08 1.113e-07 1.059e-07 1.110e-07 5.026e-08 1.271e-07 1.858e-07 1.731e-07 4.090e-08 5.500e-08 2.270e-07 3.285e-07 3.178e-07 2.062e-07 1.601e-07 2.529e-07 6.366e-08 5.004e-08 5.804e-08 4.926e-08 5.401e-08 6.653e-08 6.926e-08 1.017e-07 1.260e-07 1.329e-07 1.329e-07 1.329e-07 1.000e-02 7.367e-03 2.198e-03 1.866e-03 1.829e-03 9.699e-04 4.702e-04 2.997e-04 2.981e-04 2.945e-04 2.471e-04 1.660e-06 1.688e-06 6.250e-07 5.684e-07 4.243e-07 4.580e-07 4.495e-07 4.809e-07 4.217e-07 4.110e-07 3.921e-07 2.882e-07 1.780e-07 1.780e-07 1.780e-07 1.000e-02 8.990e-03 1.070e-03 6.315e-04 7.720e-05 6.727e-05 6.173e-05 4.390e-05 5.832e-06 3.807e-06 3.072e-06 1.157e-06 6.728e-07 2.953e-07 2.953e-07 2.953e-07 1.000e-02 3.241e-03 3.165e-03 2.934e-03 2.929e-03 2.865e-03 1.381e-03 7.726e-04 6.372e-05 1.096e-05 8.964e-06 2.988e-06 2.466e-06 1.338e-06 1.035e-06 6.558e-07 6.376e-07 5.713e-07 5.718e-07 4.187e-07 5.331e-07 3.658e-07 3.591e-07 3.718e-07 1.245e-07 1.082e-07 1.647e-07 1.647e-07 1.647e-07 1.000e-02 2.109e-03 7.719e-05 3.188e-05 2.550e-05 3.339e-06 2.706e-06 9.208e-07 5.426e-07 5.27