<VTKFile byte_order="LittleEndian" type="PolyData" version="0.1">
  <PolyData>
    <Piece NumberOfLines="337" NumberOfPoints="357" NumberOfPolys="0" NumberOfStrips="0" NumberOfVerts="0">
      <CellData Scalars="Scalars">
        <DataArray Name="energy" format="ascii" type="Float32">
          3.414e-01
          5.795e-01
          3.368e-01
          4.345e-01
          3.359e-01
          6.424e-01
          3.319e-01
          3.083e+00
          3.303e-01
          3.303e-01
          3.303e-01
          2.581e-01
          3.341e-02
          1.659e-02
          3.207e-03
          1.378e-03
          1.293e-03
          4.018e-04
          3.756e-04
          3.091e-05
          4.258e-06
          3.073e-06
          3.059e-06
          1.683e-06
          1.425e-06
          6.744e-07
          6.744e-07
          6.744e-07
          5.348e-07
          3.981e-07
          1.944e-07
          1.928e-07
          2.816e-08
          2.904e-08
          1.664e-08
          2.240e-08
          3.444e-08
          8.939e-09
          1.095e-08
          1.624e-08
          1.313e-08
          2.289e-08
          2.301e-08
          7.414e-09
          5.680e-08
          6.226e-08
          3.529e-08
          3.111e-08
          6.958e-08
          6.215e-08
          2.277e-09
          2.135e-08
          9.927e-09
          6.825e-09
          7.945e-09
          1.687e-08
          2.255e-08
          4.775e-08
          1.908e-08
          2.649e-08
          8.517e-09
          1.064e-08
          8.923e-09
          1.573e-08
          1.192e-08
          2.670e-08
          5.732e-08
          5.914e-08
          5.362e-08
          5.258e-08
          5.457e-08
          4.978e-08
          4.978e-08
          4.978e-08
          4.978e-08
          4.773e-08
          4.152e-09
          9.430e-09
          6.248e-09
          5.805e-09
          3.186e-08
          9.437e-08
          8.923e-08
          5.507e-08
          5.850e-08
          5.850e-08
          5.850e-08
          5.850e-08
          2.499e-08
          2.499e-08
          2.499e-08
          2.499e-08
          6.198e-08
          1.876e-08
          4.328e-08
          2.454e-08
          2.620e-08
          3.241e-08
          6.926e-09
          1.347e-08
          7.691e-09
          1.415e-08
          9.808e-09
          3.140e-08
          5.729e-08
          5.729e-08
          3.083e+00
          2.183e-02
          1.773e+00
          1.555e-02
          4.898e-03
          8.408e-01
          8.036e-01
          1.484e-02
          9.893e-02
          9.893e-02
          1.484e-02
          1.484e-02
          4.898e-03
          4.898e-03
          1.555e-02
          1.555e-02
          2.183e-02
          2.183e-02
          6.424e-01
          1.484e-02
          9.507e-02
          9.507e-02
          1.484e-02
          1.484e-02
          4.345e-01
          4.345e-01
          4.345e-01
          4.345e-01
          4.345e-01
          3.481e-01
          3.481e-01
          3.481e-01
          3.481e-01
          5.795e-01
          1.484e-02
          9.893e-02
          9.893e-02
          1.484e-02
          1.484e-02
          5.449e+00
          2.288e-01
          7.633e-01
          7.633e-01
          7.633e-01
          6.520e-01
          7.591e-01
          3.370e-01
          3.547e-01
          2.279e-01
          3.508e-01
          3.508e-01
          9.838e-02
          9.622e-02
          9.622e-02
          9.591e-02
          7.527e-02
          6.080e-02
          3.785e-02
          3.785e-02
          2.826e-02
          1.309e-02
          3.480e-03
          3.480e-03
          3.480e-03
          3.002e-03
          2.997e-03
          2.901e-03
          2.806e-03
          2.260e-03
          2.232e-03
          2.126e-03
          2.039e-03
          1.718e-03
          1.708e-03
          1.455e-03
          1.962e-04
          6.733e-05
          6.399e-05
          5.888e-05
          2.328e-05
          2.252e-05
          1.610e-05
          1.251e-05
          1.191e-05
          2.327e-06
          1.183e-06
          9.352e-07
          9.223e-07
          5.754e-07
          4.871e-07
          1.962e-07
          1.184e-07
          9.238e-08
          1.342e-07
          1.309e-07
          1.747e-08
          1.490e-08
          3.077e-08
          3.173e-08
          2.267e-08
          1.668e-07
          1.587e-07
          1.541e-07
          1.287e-07
          6.362e-08
          9.113e-08
          2.500e-08
          2.872e-08
          3.550e-08
          4.275e-08
          2.493e-08
          4.010e-08
          5.500e-08
          3.272e-08
          1.120e-07
          1.110e-08
          2.183e-08
          2.122e-08
          1.285e-08
          1.141e-08
          7.811e-08
          6.730e-08
          7.577e-08
          7.632e-08
          1.946e-07
          1.068e-07
          1.046e-07
          1.837e-08
          3.419e-08
          3.159e-08
          9.600e-09
          8.484e-10
          3.262e-08
          2.201e-08
          2.908e-08
          1.998e-08
          2.353e-08
          2.791e-08
          1.767e-08
          1.832e-08
          2.322e-08
          3.790e-08
          4.649e-08
          7.995e-08
          7.475e-08
          9.986e-08
          1.138e-08
          1.532e-08
          2.494e-08
          7.347e-09
          9.481e-09
          4.692e-09
          2.275e-08
          2.121e-08
          5.272e-08
          3.664e-08
          2.704e-08
          5.166e-08
          7.056e-09
          2.975e-09
          3.202e-08
          5.332e-08
          3.992e-08
          4.570e-08
          4.807e-08
          2.421e-08
          3.220e-08
          2.408e-08
          2.578e+00
          2.433e-08
          1.761e-08
          2.586e-08
          1.779e-08
          2.224e-09
          5.007e-09
          1.803e-08
          2.012e-08
          1.993e-08
          6.646e-08
          2.624e-08
          6.095e-09
          6.614e-08
          8.338e-08
          4.922e-08
          1.299e-08
          2.301e-08
          3.464e-08
          5.757e-08
          5.308e-08
          8.715e-08
          1.660e-08
          1.883e-08
          2.633e-08
          1.780e-08
          2.963e-08
          2.768e-08
          2.814e-08
          1.588e-08
          1.588e-08
          2.578e+00
          1.598e+00
          3.179e-01
          1.512e-01
          9.959e-02
          7.272e-02
          6.199e-02
          6.199e-02
          2.279e-01
          9.893e-02
          9.893e-02
          3.370e-01
          2.594e-03
          9.507e-02
          1.484e-02
          1.484e-02
          2.594e-03
          2.594e-03
          6.520e-01
          2.747e-03
          3.455e-01
          7.553e-02
          9.893e-02
          9.893e-02
          9.893e-02
          7.553e-02
          7.553e-02
          2.747e-03
          2.747e-03
          2.288e-01
          9.893e-02
          9.893e-02
        </DataArray>
        <DataArray Name="weight" format="ascii" type="Float32">
          1.000e+00
          1.247e+00
          9.770e-01
          1.213e+00
          9.545e-01
          1.184e+00
          9.325e-01
          1.152e+00
          9.109e-01
          9.109e-01
          9.109e-01
          9.109e-01
          9.109e-01
          9.108e-01
          9.108e-01
          9.108e-01
          9.107e-01
          9.107e-01
          9.105e-01
          9.104e-01
          9.100e-01
          9.089e-01
          9.075e-01
          9.062e-01
          9.044e-01
          9.025e-01
          9.025e-01
          9.025e-01
          8.997e-01
          8.997e-01
          8.961e-01
          8.468e-01
          8.421e-01
          7.846e-01
          7.845e-01
          7.753e-01
          6.733e-01
          6.664e-01
          6.664e-01
          6.581e-01
          6.503e-01
          6.423e-01
          6.423e-01
          6.423e-01
          6.339e-01
          6.284e-01
          6.230e-01
          6.230e-01
          6.165e-01
          6.114e-01
          6.062e-01
          5.978e-01
          5.911e-01
          5.836e-01
          5.760e-01
          5.686e-01
          5.685e-01
          5.622e-01
          5.569e-01
          5.505e-01
          4.778e-01
          4.777e-01
          4.777e-01
          4.777e-01
          4.776e-01
          4.717e-01
          4.666e-01
          4.625e-01
          4.585e-01
          4.544e-01
          4.544e-01
          4.315e-01
          4.315e-01
          4.315e-01
          4.315e-01
          4.315e-01
          4.275e-01
          4.217e-01
          4.217e-01
          3.267e-01
          3.224e-01
          3.190e-01
          3.066e-01
          3.043e-01
          3.016e-01
          3.016e-01
          3.016e-01
          3.016e-01
          2.990e-01
          2.990e-01
          2.990e-01
          2.990e-01
          2.957e-01
          2.931e-01
          2.898e-01
          2.870e-01
          2.870e-01
          2.870e-01
          2.840e-01
          2.840e-01
          2.572e-01
          2.571e-01
          2.540e-01
          2.508e-01
          2.508e-01
          2.486e-01
          1.152e+00
          1.152e+00
          1.152e+00
          1.152e+00
          1.152e+00
          1.152e+00
          1.152e+00
          1.152e+00
          1.152e+00
          1.152e+00
          1.152e+00
          1.152e+00
          1.152e+00
          1.152e+00
          1.152e+00
          1.152e+00
          1.152e+00
          1.152e+00
          1.184e+00
          1.184e+00
          1.184e+00
          1.184e+00
          1.184e+00
          1.184e+00
          1.213e+00
          1.213e+00
          1.213e+00
          1.213e+00
          1.213e+00
          1.213e+00
          1.213e+00
          1.213e+00
          1.213e+00
          1.247e+00
          1.247e+00
          1.247e+00
          1.247e+00
          1.247e+00
          1.247e+00
          1.000e+00
          1.654e+00
          9.998e-01
          9.998e-01
          9.998e-01
          1.691e+00
          9.827e-01
          1.659e+00
          9.659e-01
          1.221e+00
          9.440e-01
          9.440e-01
          9.440e-01
          9.440e-01
          9.440e-01
          9.440e-01
          9.439e-01
          9.439e-01
          9.439e-01
          9.439e-01
          9.439e-01
          9.439e-01
          9.439e-01
          9.439e-01
          9.439e-01
          9.438e-01
          9.431e-01
          9.423e-01
          9.415e-01
          9.415e-01
          9.414e-01
          9.407e-01
          9.393e-01
          9.393e-01
          9.393e-01
          9.392e-01
          9.391e-01
          9.390e-01
          9.390e-01
          9.390e-01
          9.386e-01
          9.319e-01
          9.314e-01
          9.308e-01
          9.308e-01
          9.301e-01
          9.285e-01
          9.285e-01
          9.285e-01
          9.260e-01
          9.260e-01
          9.227e-01
          9.177e-01
          9.115e-01
          9.047e-01
          9.047e-01
          8.988e-01
          8.229e-01
          8.131e-01
          7.597e-01
          7.518e-01
          7.434e-01
          7.434e-01
          7.434e-01
          7.389e-01
          7.341e-01
          7.279e-01
          7.224e-01
          6.703e-01
          6.703e-01
          6.635e-01
          6.572e-01
          6.571e-01
          6.571e-01
          6.513e-01
          6.446e-01
          6.401e-01
          6.321e-01
          6.321e-01
          6.250e-01
          6.249e-01
          6.172e-01
          6.123e-01
          6.072e-01
          5.809e-01
          5.763e-01
          5.731e-01
          5.520e-01
          5.481e-01
          5.417e-01
          5.362e-01
          5.362e-01
          5.294e-01
          5.220e-01
          5.166e-01
          5.166e-01
          5.111e-01
          5.111e-01
          5.110e-01
          5.110e-01
          5.110e-01
          5.110e-01
          5.053e-01
          5.053e-01
          5.005e-01
          4.794e-01
          4.756e-01
          4.721e-01
          4.721e-01
          4.665e-01
          4.665e-01
          4.664e-01
          4.605e-01
          4.605e-01
          4.553e-01
          4.502e-01
          4.502e-01
          4.456e-01
          4.456e-01
          4.416e-01
          4.358e-01
          4.299e-01
          4.254e-01
          4.216e-01
          4.175e-01
          4.175e-01
          4.175e-01
          4.129e-01
          4.086e-01
          1.000e+00
          3.508e-01
          3.469e-01
          3.429e-01
          3.429e-01
          3.389e-01
          3.388e-01
          3.343e-01
          3.304e-01
          3.304e-01
          3.266e-01
          3.239e-01
          3.204e-01
          3.162e-01
          3.162e-01
          3.137e-01
          3.108e-01
          3.108e-01
          3.074e-01
          3.073e-01
          3.046e-01
          3.046e-01
          3.023e-01
          3.023e-01
          2.988e-01
          2.956e-01
          2.921e-01
          2.921e-01
          2.890e-01
          2.890e-01
          2.452e-01
          1.000e+00
          1.000e+00
          1.000e+00
          1.000e+00
          1.000e+00
          1.000e+00
          1.000e+00
          1.000e+00
          1.221e+00
          1.221e+00
          1.221e+00
          1.659e+00
          1.659e+00
          1.659e+00
          1.659e+00
          1.659e+00
          1.659e+00
          1.659e+00
          1.691e+00
          1.691e+00
          1.691e+00
          1.691e+00
          1.691e+00
          1.691e+00
          1.691e+00
          1.691e+00
          1.691e+00
          1.691e+00
          1.691e+00
          1.654e+00
          1.654e+00
          1.654e+00
        </DataArray>
        <DataArray Name="cell" format="ascii" type="Float32">
          10
          10
          10
          10
          10
          10
          10
          10
          10
          10
          20
          20
          20
          20
          20
          20
          20
          20
          20
          20
          20
          20
          20
          20
          20
          20
          100
          300
          300
          300
          300
          300
          300
          300
          300
          300
          300
          300
          300
          300
          300
          300
          300
          300
          300
          300
          300
          300
          300
          300
          300
          300
          300
          300
          300
          300
          300
          300
          300
          300
          300
          300
          300
          300
          300
          300
          300
          300
          300
          300
          300
          300
          100
          100
          300
          300
          300
          300
          300
          300
          300
          300
          300
          300
          300
          100
          100
          300
          300
          100
          100
          300
          300
          300
          300
          300
          300
          300
          300
          300
          300
          300
          300
          300
          300
          300
          10
          10
          10
          10
          10
          10
          10
          10
          10
          10
          10
          10
          10
          10
          10
          10
          10
          10
          10
          10
          10
          10
          10
          10
          10
          20
          100
          120
          300
          300
          120
          130
          9994
          10
          10
          10
          10
          10
          10
          10
          10
          10
          10
          10
          10
          10
          10
          10
          10
          10
          20
          20
          20
          20
          20
          20
          20
          20
          20
          20
          20
          20
          100
          300
          300
          300
          300
          300
          300
          300
          300
          300
          300
          300
          300
          300
          300
          300
          300
          300
          300
          300
          300
          300
          300
          300
          300
          300
          300
          300
          300
          300
          300
          300
          300
          300
          300
          300
          300
          300
          300
          300
          300
          300
          300
          300
          300
          300
          300
          300
          300
          300
          300
          300
          300
          300
          300
          300
          300
          300
          300
          300
          300
          300
          300
          300
          300
          300
          300
          300
          300
          300
          300
          300
          300
          300
          300
          300
          300
          300
          300
          300
          300
          300
          300
          300
          300
          300
          300
          300
          300
          300
          300
          300
          300
          300
          300
          300
          300
          300
          300
          300
          300
          300
          300
          300
          300
          300
          300
          300
          300
          300
          300
          300
          300
          300
          300
          300
          300
          300
          300
          300
          300
          300
          300
          300
          300
          300
          300
          300
          300
          300
          300
          300
          300
          300
          300
          300
          300
          300
          300
          300
          300
          300
          300
          300
          300
          10
          10
          10
          10
          10
          10
          10
          10
          10
          10
          10
          10
          10
          10
          10
          10
          10
          10
          10
          10
          10
          10
          10
          10
        </DataArray>
        <DataArray Name="history" format="ascii" type="Float32">
          1
          1
          1
          1
          1
          1
          1
          1
          1
          1
          1
          1
          1
          1
          1
          1
          1
          1
          1
          1
          1
          1
          1
          1
          1
          1
          1
          1
          1
          1
          1
          1
          1
          1
          1
          1
          1
          1
          1
          1
          1
          1
          1
          1
          1
          1
          1
          1
          1
          1
          1
          1
          1
          1
          1
          1
          1
          1
          1
          1
          1
          1
          1
          1
          1
          1
          1
          1
          1
          1
          1
          1
          1
          1
          1
          1
          1
          1
          1
          1
          1
          1
          1
          1
          1
          1
          1
          1
          1
          1
          1
          1
          1
          1
          1
          1
          1
          1
          1
          1
          1
          1
          1
          1
          1
          1
          1
          1
          1
          1
          1
          1
          1
          1
          1
          1
          1
          1
          1
          1
          1
          1
          1
          1
          1
          1
          1
          1
          1
          1
          1
          1
          1
          1
          1
          1
          1
          1
          1
          1
          1
          1
          1
          1
          1
          2
          2
          2
          2
          2
          2
          2
          2
          2
          2
          2
          2
          2
          2
          2
          2
          2
          2
          2
          2
          2
          2
          2
          2
          2
          2
          2
          2
          2
          2
          2
          2
          2
          2
          2
          2
          2
          2
          2
          2
          2
          2
          2
          2
          2
          2
          2
          2
          2
          2
          2
          2
          2
          2
          2
          2
          2
          2
          2
          2
          2
          2
          2
          2
          2
          2
          2
          2
          2
          2
          2
          2
          2
          2
          2
          2
          2
          2
          2
          2
          2
          2
          2
          2
          2
          2
          2
          2
          2
          2
          2
          2
          2
          2
          2
          2
          2
          2
          2
          2
          2
          2
          2
          2
          2
          2
          2
          2
          2
          2
          2
          2
          2
          2
          2
          2
          2
          2
          2
          2
          2
          2
          2
          2
          2
          2
          2
          2
          2
          2
          2
          2
          2
          2
          2
          2
          2
          2
          2
          2
          2
          2
          2
          2
          2
          2
          2
          2
          2
          2
          2
          2
          2
          2
          2
          2
          2
          2
          2
          2
          2
          2
          2
          2
          2
          2
          2
          2
          2
          2
          2
          2
          2
          2
          2
          2
          2
          2
          2
          2
          2
          2
          2
          2
          2
          2
          2
          2
          2
          2
          2
          2
        </DataArray>
        <DataArray Name="track" format="ascii" type="Float32">
          1
          1
          1
          1
          1
          1
          1
          1
          1
          1
          1
          1
          1
          1
          1
          1
          1
          1
          1
          1
          1
          1
          1
          1
          1
          1
          1
          1
          1
          1
          1
          1
          1
          1
          1
          1
          1
          1
          1
          1
          1
          1
          1
          1
          1
          1
          1
          1
          1
          1
          1
          1
          1
          1
          1
          1
          1
          1
          1
          1
          1
          1
          1
          1
          1
          1
          1
          1
          1
          1
          1
          1
          1
          1
          1
          1
          1
          1
          1
          1
          1
          1
          1
          1
          1
          1
          1
          1
          1
          1
          1
          1
          1
          1
          1
          1
          1
          1
          1
          1
          1
          1
          1
          1
          1
          1
          2
          2
          2
          2
          2
          2
          2
          2
          2
          2
          3
          3
          4
          4
          5
          5
          6
          6
          7
          7
          7
          7
          8
          8
          9
          9
          9
          9
          9
          9
          9
          9
          9
          10
          10
          10
          10
          11
          11
          1
          1
          1
          1
          1
          1
          1
          1
          1
          1
          1
          1
          1
          1
          1
          1
          1
          1
          1
          1
          1
          1
          1
          1
          1
          1
          1
          1
          1
          1
          1
          1
          1
          1
          1
          1
          1
          1
          1
          1
          1
          1
          1
          1
          1
          1
          1
          1
          1
          1
          1
          1
          1
          1
          1
          1
          1
          1
          1
          1
          1
          1
          1
          1
          1
          1
          1
          1
          1
          1
          1
          1
          1
          1
          1
          1
          1
          1
          1
          1
          1
          1
          1
          1
          1
          1
          1
          1
          1
          1
          1
          1
          1
          1
          1
          1
          1
          1
          1
          1
          1
          1
          1
          1
          1
          1
          1
          1
          1
          1
          1
          1
          1
          1
          1
          1
          1
          1
          1
          1
          1
          1
          1
          1
          1
          1
          1
          1
          1
          1
          1
          1
          1
          1
          1
          1
          1
          1
          1
          1
          1
          1
          1
          1
          1
          1
          1
          1
          1
          1
          1
          1
          1
          1
          1
          1
          1
          1
          1
          1
          2
          2
          2
          2
          2
          2
          2
          2
          3
          3
          3
          4
          4
          4
          4
          4
          5
          5
          6
          6
          6
          6
          6
          6
          6
          7
          7
          8
          8
          9
          9
          9
        </DataArray>
      </CellData>
      <Points>
        <DataArray NumberOfComponents="3" format="ascii" type="Float32">
          2.846e+00 2.562e+00 1.950e+00
          1.970e+00 3.422e+00 2.069e+00
          1.970e+00 3.422e+00 2.069e+00
          1.987e+00 2.907e+00 2.383e+00
          1.987e+00 2.907e+00 2.383e+00
          6.843e-01 4.219e-01 2.131e+00
          6.843e-01 4.219e-01 2.131e+00
          8.350e-01 4.129e-01 2.215e+00
          8.350e-01 4.129e-01 2.215e+00
          8.665e-01 0.000e+00 2.714e+00
          9.875e-01 1.589e+00 4.637e+00
          1.027e+00 2.109e+00 5.265e+00
          1.041e+00 2.215e+00 5.010e+00
          9.278e-01 2.337e+00 4.989e+00
          9.857e-01 3.847e+00 4.951e+00
          1.566e+00 4.122e+00 4.693e+00
          1.617e+00 4.338e+00 4.430e+00
          1.618e+00 4.347e+00 4.411e+00
          1.472e+00 4.795e+00 4.328e+00
          1.461e+00 5.031e+00 4.275e+00
          1.675e+00 5.170e+00 4.440e+00
          1.571e+00 4.902e+00 5.948e+00
          1.829e+00 4.640e+00 6.513e+00
          2.340e+00 4.193e+00 7.440e+00
          3.949e+00 3.639e+00 7.955e+00
          4.340e+00 3.652e+00 8.217e+00
          4.342e+00 3.655e+00 8.233e+00
          5.067e+01 4.767e+01 3.000e+02
          5.076e+01 4.775e+01 3.005e+02
          5.081e+01 4.798e+01 3.008e+02
          5.110e+01 4.730e+01 3.011e+02
          5.139e+01 4.699e+01 3.009e+02
          5.094e+01 4.736e+01 3.010e+02
          5.104e+01 4.762e+01 3.011e+02
          5.094e+01 4.771e+01 3.012e+02
          5.076e+01 4.737e+01 3.012e+02
          5.066e+01 4.784e+01 3.030e+02
          5.088e+01 4.529e+01 3.021e+02
          5.134e+01 4.505e+01 3.025e+02
          5.129e+01 4.524e+01 3.032e+02
          5.207e+01 4.595e+01 3.052e+02
          5.219e+01 4.572e+01 3.060e+02
          5.310e+01 4.571e+01 3.073e+02
          5.176e+01 4.617e+01 3.080e+02
          5.215e+01 4.623e+01 3.083e+02
          5.187e+01 4.606e+01 3.081e+02
          5.153e+01 4.482e+01 3.085e+02
          4.998e+01 4.422e+01 3.097e+02
          5.008e+01 4.420e+01 3.097e+02
          4.989e+01 4.400e+01 3.098e+02
          4.778e+01 4.064e+01 3.099e+02
          4.871e+01 4.106e+01 3.101e+02
          4.840e+01 4.155e+01 3.090e+02
          4.905e+01 4.186e+01 3.092e+02
          4.906e+01 4.155e+01 3.095e+02
          4.898e+01 4.135e+01 3.097e+02
          4.872e+01 4.126e+01 3.098e+02
          4.469e+01 4.183e+01 3.084e+02
          4.512e+01 4.228e+01 3.073e+02
          4.511e+01 4.232e+01 3.073e+02
          4.517e+01 4.330e+01 3.066e+02
          4.516e+01 4.330e+01 3.067e+02
          4.515e+01 4.352e+01 3.068e+02
          4.424e+01 4.401e+01 3.069e+02
          4.373e+01 4.399e+01 3.053e+02
          4.302e+01 4.422e+01 3.050e+02
          4.386e+01 4.413e+01 3.032e+02
          4.306e+01 4.340e+01 3.026e+02
          4.141e+01 4.188e+01 3.000e+02
          4.695e+01 4.098e+01 3.016e+02
          5.132e+01 3.951e+01 3.044e+02
          5.338e+01 4.084e+01 3.027e+02
          5.463e+01 4.318e+01 3.000e+02
          1.952e+02 3.053e+02 0.000e+00
          3.358e+02 5.674e+02 3.000e+02
          3.360e+02 5.678e+02 3.005e+02