<VTKFile byte_order="LittleEndian" type="PolyData" version="0.1">
  <PolyData>
    <Piece NumberOfLines="6" NumberOfPoints="7" NumberOfPolys="0" NumberOfStrips="0" NumberOfVerts="0">
      <CellData Scalars="Scalars">
        <DataArray Name="energy" format="ascii" type="Float32">
          1.400e+01
          1.400e+01
          1.400e+01
          1.400e+01
          1.400e+01
          1.400e+01
        </DataArray>
        <DataArray Name="weight" format="ascii" type="Float32">
          1.000e+00
          1.000e+00
          1.000e+00
          1.000e+00
          1.000e+00
          1.000e+00
        </DataArray>
        <DataArray Name="cell" format="ascii" type="Float32">
          100
          100
          100
          100
          100
          200
        </DataArray>
        <DataArray Name="history" format="ascii" type="Float32">
          1
          1
          1
          1
          1
          1
        </DataArray>
        <DataArray Name="track" format="ascii" type="Float32">
          1
          1
          1
          1
          1
          1
        </DataArray>
      </CellData>
      <Points>
        <DataArray NumberOfComponents="3" format="ascii" type="Float32">
          8.562e-02 7.969e-02 1.211e-01
          2.959e-01 5.000e-01 3.217e-01
          4.827e-01 1.265e-01 5.000e-01
          5.000e-01 9.191e-02 4.835e-01
          2.039e-01 -5.000e-01 2.009e-01
          3.399e-02 -1.603e-01 3.880e-02
          3.399e-02 -1.603e-01 3.880e-02
        </DataArray>
      </Points>
      <Lines>
        <DataArray Name="connectivity" format="ascii" type="Float32">
          0 1
          1 2
          2 3
          3 4
          4 5
          5 6
        </DataArray>
        <DataArray Name="offsets" format="ascii" type="Float32">
          2
          4
          6
          8
          10
          12
        </DataArray>
      </Lines>
    </Piece>
  </PolyData>
</VTKFile>
