<VTKFile byte_order="LittleEndian" type="PolyData" version="0.1">
  <PolyData>
    <Piece NumberOfLines="43" NumberOfPoints="43" NumberOfPolys="0" NumberOfStrips="0" NumberOfVerts="0">
      <CellData Scalars="Scalars">
        <DataArray Name="energy" format="ascii" type="Float32">
          2.737e+00
          8.826e-01
          8.826e-01
          8.672e-01
          8.672e-01
          8.672e-01
          8.672e-01
          1.433e-01
          1.433e-01
          1.433e-01
          1.433e-01
          5.671e-02
          5.671e-02
          5.671e-02
          4.806e-02
          4.806e-02
          4.806e-02
          3.869e-03
          3.869e-03
          1.203e-06
          1.088e-06
          1.088e-06
          1.088e-06
          1.088e-06
          1.088e-06
          1.088e-06
          1.088e-06
          1.088e-06
          1.088e-06
          1.088e-06
          1.088e-06
          1.088e-06
          1.088e-06
          1.088e-06
          1.088e-06
          1.088e-06
          1.071e-06
          1.071e-06
          1.058e-07
          1.058e-07
          2.393e-09
          7.612e+00
          7.612e+00
        </DataArray>
        <DataArray Name="weight" format="ascii" type="Float32">
          1.000e+00
          9.956e-01
          9.956e-01
          9.793e-01
          9.793e-01
          9.793e-01
          9.793e-01
          9.788e-01
          9.788e-01
          9.788e-01
          9.788e-01
          9.788e-01
          9.788e-01
          9.788e-01
          9.788e-01
          9.788e-01
          9.788e-01
          9.787e-01
          9.787e-01
          9.665e-01
          1.881e-01
          1.881e-01
          1.881e-01
          1.881e-01
          1.881e-01
          1.881e-01
          1.881e-01
          1.881e-01
          1.881e-01
          1.881e-01
          1.881e-01
          1.881e-01
          1.881e-01
          1.881e-01
          1.881e-01
          1.881e-01
          1.827e-01
          6.091e-02
          5.824e-02
          5.824e-02
          1.551e-01
          9.948e-01
          9.948e-01
        </DataArray>
        <DataArray Name="cell" format="ascii" type="Float32">
          10
          10
          10
          20
          100
          100
          300
          100
          100
          100
          110
          100
          100
          300
          100
          100
          300
          100
          110
          100
          100
          300
          300
          100
          100
          300
          300
          100
          100
          300
          300
          100
          100
          300
          300
          100
          100
          110
          100
          300
          300
          300
          300
        </DataArray>
        <DataArray Name="history" format="ascii" type="Float32">
          1
          1
          1
          1
          1
          1
          1
          1
          1
          1
          1
          1
          1
          1
          1
          1
          1
          1
          1
          1
          1
          1
          1
          1
          1
          1
          1
          1
          1
          1
          1
          1
          1
          1
          1
          1
          1
          1
          1
          1
          1
          1
          1
        </DataArray>
        <DataArray Name="track" format="ascii" type="Float32">
          1
          1
          1
          1
          1
          1
          1
          1
          1
          1
          1
          1
          1
          1
          1
          1
          1
          1
          1
          1
          1
          1
          1
          2
          2
          2
          2
          3
          3
          3
          3
          4
          4
          4
          4
          5
          5
          5
          5
          5
          5
          6
          6
        </DataArray>
      </CellData>
      <Points>
        <DataArray NumberOfComponents="3" format="ascii" type="Float32">
          9.401e-01 1.714e-01 1.384e+00
          7.222e-01 0.000e+00 1.386e+00
          0.000e+00 9.802e-01 2.302e+00
          1.836e+00 1.514e+00 4.398e+00
          5.444e+00 9.807e-01 8.331e+00
          1.208e+01 0.000e+00 1.557e+01
          2.730e+02 3.855e+01 3.000e+02
          2.827e+02 4.130e+01 3.000e+02
          4.880e+02 0.000e+00 1.567e+02
          7.126e+02 4.519e+01 0.000e+00
          1.000e+03 1.030e+02 2.005e+02
          1.000e+03 1.017e+02 2.023e+02
          9.458e+02 -1.421e-14 2.843e+02
          9.354e+02 1.951e+01 3.000e+02
          9.322e+02 2.596e+01 3.000e+02
          8.994e+02 1.142e+02 0.000e+00
          8.666e+02 2.023e+02 3.000e+02
          8.585e+02 2.044e+02 3.000e+02
          1.000e+03 1.398e+02 4.863e+01
          1.000e+03 1.424e+02 4.425e+01
          6.730e+02 0.000e+00 2.834e+02
          6.746e+02 6.522e+01 3.000e+02
          6.746e+02 6.522e+01 3.000e+02
          6.600e+02 5.329e+02 1.479e+02
          6.730e+02 0.000e+00 2.834e+02
          6.746e+02 6.522e+01 3.000e+02
          6.746e+02 6.522e+01 3.000e+02
          6.600e+02 5.329e+02 1.479e+02
          6.730e+02 0.000e+00 2.834e+02
          6.746e+02 6.522e+01 3.000e+02
          6.746e+02 6.522e+01 3.000e+02
          6.600e+02 5.329e+02 1.479e+02
          6.730e+02 0.000e+00 2.834e+02
          6.746e+02 6.522e+01 3.000e+02
          6.746e+02 6.522e+01 3.000e+02
          6.600e+02 5.329e+02 1.479e+02
          8.303e+02 6.662e+02 0.000e+00
          1.000e+03 9.391e+02 1.632e+02
          1.000e+03 9.365e+02 1.670e+02
          9.092e+02 8.142e+02 3.000e+02
          9.088e+02 8.185e+02 3.056e+02
          9.093e+02 8.141e+02 3.033e+02
          9.069e+02 8.192e+02 3.087e+02
        </DataArray>
      </Points>
      <Lines>
        <DataArray Name="connectivity" format="ascii" type="Float32">
          0 1
          1 2
          2 3
          3 4
          4 5
          5 6
          6 7
          7 8
          8 9
          9 10
          10 11
          11 12
          12 13
          13 14
          14 15
          15 16
          16 17
          17 18
          18 19
          19 20
          20 21
          21 22
          22 23
          23 24
          24 25
          25 26
          26 27
          27 28
          28 29
          29 30
          30 31
          31 32
          32 33
          33 34
          34 35
          35 36
          36 37
          37 38
          38 39
          39 40
          40 41
          41 42
          42 43
        </DataArray>
        <DataArray Name="offsets" format="ascii" type="Float32">
          2
          4
          6
          8
          10
          12
          14
          16
          18
          20
          22
          24
          26
          28
          30
          32
          34
          36
          38
          40
          42
          44
          46
          48
          50
          52
          54
          56
          58
          60
          62
          64
          66
          68
          70
          72
          74
          76
          78
          80
          82
          84
          86
        </DataArray>
      </Lines>
    </Piece>
  </PolyData>
</VTKFile>
